Name = "METHANE"
CASNumber = "74-82-8"
Formula = "CH4"
StructuralFormula = "CH4"
ChemicalName = "METHANE"
Family = "N-ALKANES"
SubFamily = ""
MolarMass = 1.604280e+01
Tc = 1.905640e+02
Pc = 4.599000e+01
Vc = 9.860000e+01
Zc = 2.860000e-01
omega = 1.154780e-02
VdWArea = 2.880000e+08
VdWVolume = 1.705000e-02
DipoleMoment = 0.000000e+00
Ttriple = ""
Ptriple = ""
Psat_model = "DIPPR"
Psat_unitP = "Pa"
Psat_param = [3.920500e+01, -1.324400e+03, -3.436600e+00, 3.101900e-05, 2.000000e+00, ]
Psat_limits = [9.069000e+01, 1.905600e+02, ]
SecondVirialCoefficient = ""
Cp = ""
DielectricConstant = ""
dados = [94.98, 104.98, 114.98, 124.98, 134.98, 144.98, 154.98, 164.98, 174.98, 184.98, 91.15, 92.87, 94.85, 95.87, 97.66, 99.25, 101.90, 104.08, 105.84, 107.57, 108.91, 110.42, 91.28, 99.66, 102.66, 108.38, 110.70, 109.98, 119.98, 129.98, 139.98, 149.98, 159.98, 169.98, 179.98, 189.98, 172.04, 177.59, 183.15, 185.93, 188.71, 97.28, 100.89, 105.99, 110.01, 114.61, 133.61, 138.54, 143.48, 153.37, 158.32, 163.28, 172.42, 181.19, 90.68, 100.88, 111.47, 133.61, 148.43, 158.33, 178.18, 152.40, 155.44, 156.64, 158.47, 161.14, 164.30, 167.39, 170.51, 173.25, 178.08, 179.82, 181.81, 183.31, 186.23, 187.45, 187.53, 189.00, 190.24, 112.34, 117.80, 120.47, 122.70, 124.88, 126.94, 128.31, 130.24, 131.40, 132.12, 135.59, 137.90, 140.22, 142.20, 144.19, 146.68, 147.82, 149.79, 133.72, 136.40, 138.72, 144.41, 148.81, 154.30, 158.20, 161.85, 165.87, 166.01, 170.39, 174.32, 176.43, 177.94, 180.68, 182.17, 184.69, 186.51, 188.10, 188.58, 188.79, 188.91, 189.05, 189.40, 189.60, 189.66, 190.00, 190.17, 190.44, 90.99, 91.99, 92.99, 93.99, 94.99, 95.99, 96.99, 97.99, 98.99, 99.99, 100.99, 101.99, 102.99, 103.99, 104.99, 105.99, 106.99, 107.99, 108.99, 109.99, 110.99, 110.99, 111.99, 112.99, 113.99, 114.99, 114.99, 115.99, 115.99, 116.99, 117.99, 118.99, 119.99, 120.99, 121.99, 122.99, 123.99, 124.99, 125.99, 126.99, 127.99, 128.99, 129.99, 130.99, 131.99, 132.99, 133.99, 134.99, 135.99, 136.99, 137.99, 138.99, 139.99, 140.99, 141.99, 142.99, 143.99, 144.99, 145.99, 146.99, 147.99, 148.99, 149.99, 150.99, 151.99, 152.99, 153.99, 154.99, 155.99, 156.99, 157.99, 158.99, 159.99, 160.99, 161.99, 162.99, 163.99, 164.99, 165.99, 166.99, 168.99, 169.99, 170.99, 171.99, 172.99, 173.99, 174.99, 175.99, 176.99, 177.99, 178.99, 179.99, 179.99, 180.99, 181.99, 181.99, 182.99, 183.99, 184.99, 185.99, 186.99, 187.99, 188.99, 189.99, 90.68, 100.00, 110.00, 120.00, 130.00, 140.00, 150.00, 160.00, 170.00, 180.00, 190.00, 190.55, 91.69, 95.05, 97.60, 99.68, 101.45, 104.38, 106.79, 108.84, 110.65, 111.64, 112.26, 113.73, 115.08, 117.49, 120.59, 90.68, 98.00, 100.00, 108.00, 110.00, 116.00, 118.00, 126.00, 128.00, 136.00, 138.00, 146.00, 148.00, 156.00, 158.00, 166.00, 168.00, 176.00, 178.00, 186.00, 188.00, 190.00, 190.55, 91.00, 102.00, 113.00, 124.00, 136.00, 147.00, 158.00, 169.00, 181.00, 190.00, 90.68, 100.00, 110.00, 120.00, 130.00, 140.00, 150.00, 160.00, 170.00, 180.00, 190.00, 90.69, 92.00, 94.00, 96.00, 98.00, 100.00, 102.00, 104.00, 106.00, 108.00, 110.00, 112.00, 114.00, 116.00, 118.00, 120.00, 122.00, 124.00, 126.00, 128.00, 130.00, 132.00, 134.00, 136.00, 138.00, 140.00, 142.00, 144.00, 146.00, 148.00, 150.00, 152.00, 154.00, 156.00, 158.00, 160.00, 162.00, 164.00, 166.00, 168.00, 170.00, 172.00, 174.00, 176.00, 178.00, 180.00, 182.00, 184.00, 186.00, 188.00, 190.00, 190.56, ],[0.1984, 0.5641, 1.3243, 2.6983, 4.9213, 8.2528, 12.9720, 19.3780, 27.7990, 38.5800, 0.1245, 0.1545, 0.1952, 0.2199, 0.2683, 0.3182, 0.4183, 0.5179, 0.6115, 0.7141, 0.8033, 0.9148, 0.1256, 0.3325, 0.4488, 0.7611, 0.9281, 0.9032, 1.9253, 3.6667, 6.3879, 10.3700, 15.9080, 23.3000, 32.8720, 45.2170, 25.3040, 30.5440, 36.5420, 39.9210, 43.5060, 0.2608, 0.3830, 0.6290, 0.8957, 1.2993, 4.5738, 5.9519, 7.6906, 12.1070, 14.8330, 18.1340, 25.4790, 34.1470, 0.1169, 0.3830, 1.0133, 4.5738, 9.7059, 14.8330, 30.8900, 11.6310, 13.2860, 13.9550, 15.0610, 16.7550, 18.9310, 21.2630, 23.8100, 26.2420, 30.9230, 32.7610, 34.9530, 36.6840, 40.2600, 41.8170, 41.9030, 43.9210, 45.5950, 1.1111, 1.6494, 1.9917, 2.3378, 2.6997, 3.0831, 3.3626, 3.7833, 4.0530, 4.2305, 5.1278, 5.8123, 6.5556, 7.2460, 8.0001, 9.0052, 9.5005, 10.3720, 4.5526, 5.2870, 5.9819, 7.9910, 9.8431, 12.5590, 14.7940, 17.1270, 19.9890, 20.0260, 23.5290, 27.0770, 29.1570, 30.6800, 33.5000, 35.1790, 38.2120, 40.4790, 42.5730, 43.2170, 43.5580, 43.6340, 43.8720, 44.3080, 44.6220, 44.7100, 45.1820, 45.4220, 45.8170, 0.1223, 0.1388, 0.1570, 0.1769, 0.1991, 0.2234, 0.2500, 0.2790, 0.3107, 0.3451, 0.3826, 0.4232, 0.4671, 0.5144, 0.5656, 0.6206, 0.6799, 0.7432, 0.8113, 0.8839, 0.9615, 0.9616, 1.0448, 1.1328, 1.2264, 1.3254, 1.3262, 1.4311, 1.4317, 1.5434, 1.6616, 1.7871, 1.9191, 2.0581, 2.2052, 2.3599, 2.5228, 2.6933, 2.8731, 3.0608, 3.2579, 3.4644, 3.6802, 3.9062, 4.1418, 4.3881, 4.6448, 4.9126, 5.1908, 5.4810, 5.7834, 6.0964, 6.4220, 6.7606, 7.1116, 7.4758, 7.8525, 8.2439, 8.6491, 9.0680, 9.5021, 9.9501, 10.4140, 10.8920, 11.3860, 11.8980, 12.4230, 12.9670, 13.5260, 14.1030, 14.6980, 15.3100, 15.9410, 16.5880, 17.2580, 17.9420, 18.6490, 19.3720, 20.1200, 20.8830, 22.4810, 23.3100, 24.1600, 25.0320, 25.9290, 26.8490, 27.7910, 28.7610, 29.7500, 30.7690, 31.8090, 32.8820, 32.8840, 33.9760, 35.0980, 35.1000, 36.2560, 37.4350, 38.6480, 39.8890, 41.1660, 42.4750, 43.8240, 45.2090, 0.1170, 0.3450, 0.8840, 1.9190, 3.6810, 6.4220, 10.4140, 15.9390, 23.3080, 32.8830, 45.1990, 45.9880, 0.1333, 0.2000, 0.2666, 0.3333, 0.4000, 0.5333, 0.6666, 0.7999, 0.9333, 1.0132, 1.0666, 1.1999, 1.3332, 1.5999, 1.9998, 0.1172, 0.2787, 0.3448, 0.7432, 0.8839, 1.4316, 1.6619, 2.8732, 3.2583, 5.1895, 5.7805, 8.6423, 9.4933, 13.5080, 14.6770, 20.0850, 21.6350, 28.7110, 30.7170, 39.8270, 42.4120, 45.1530, 45.9500, 0.1221, 0.4230, 1.1320, 2.5220, 5.1890, 9.0620, 14.6800, 22.4400, 33.9100, 45.1600, 0.1174, 0.3451, 0.8840, 1.9190, 3.6810, 6.4220, 10.4100, 15.9400, 23.3100, 32.8800, 45.9800, 0.1170, 0.1380, 0.1761, 0.2223, 0.2778, 0.3438, 0.4216, 0.5128, 0.6187, 0.7410, 0.8813, 1.0413, 1.2228, 1.4275, 1.6574, 1.9143, 2.2002, 2.5170, 2.8667, 3.2514, 3.6732, 4.1341, 4.6363, 5.1819, 5.7730, 6.4118, 7.1006, 7.8415, 8.6368, 9.4887, 10.4000, 11.3720, 12.4080, 13.5090, 14.6800, 15.9210, 17.2350, 18.6260, 20.0960, 21.6470, 23.2830, 25.0070, 26.8220, 28.7320, 30.7400, 32.8520, 35.0710, 37.4050, 39.8600, 42.4480, 45.1860, 45.9920, ]
index = 1.000000
vcosmo = 37.955540
sigma = [0.000000, 0.000000, 0.000000, 0.000000, 0.000000, 0.000000, 0.000000, 0.000000, 0.000000, 0.000000, 0.000000, 0.000000, 0.000000, 0.000000, 0.000000, 0.000000, 0.000000, 0.000000, 0.000000, 0.000000, 0.000000, 2.708205, 5.456915, 8.984792, 5.889703, 6.030131, 7.290417, 15.823607, 3.823670, 0.000000, 0.000000, 0.000000, 0.000000, 0.000000, 0.000000, 0.000000, 0.000000, 0.000000, 0.000000, 0.000000, 0.000000, 0.000000, 0.000000, 0.000000, 0.000000, 0.000000, 0.000000, 0.000000, 0.000000, 0.000000, 0.000000, ]
acosmo = 56.007440
z = [0.000000, 0.000000, 0.000000, 0.000000, 0.000000, 0.000000, 0.000000, 0.000000, 0.000000, 0.000000, 0.000000, 0.000000, 0.000000, 0.000000, 0.000000, 0.000000, 0.000000, 0.000000, 0.000000, 0.000000, 0.000000, 0.048354, 0.097432, 0.160421, 0.105159, 0.107667, 0.130169, 0.282527, 0.068271, 0.000000, 0.000000, 0.000000, 0.000000, 0.000000, 0.000000, 0.000000, 0.000000, 0.000000, 0.000000, 0.000000, 0.000000, 0.000000, 0.000000, 0.000000, 0.000000, 0.000000, 0.000000, 0.000000, 0.000000, 0.000000, 0.000000, ]
V_i = 19.607500
q = 2.694621
r = 3.118276
alphaprime = 8287227.862001
cNE = 309.588696
cNE_T = 237407.325768
cHB = 43069954.705586
v = 6.287930
sigmaHB = 0.008400
rnorm = 6.287930
H_vap = [111.86, 119.94, 129.97, 140.06, 149.98, 160.03, 169.98, 180.13, 184.69, 99.82, 110.93, 122.04, 133.15, 144.26, 155.37, 166.48, 177.59, 171.15, 178.71, 184.59, 188.78, 90.69, 93.48, 96.27, 99.05, 101.84, 104.63, 107.41, 110.20, 112.99, 115.77, 118.56, 121.35, 124.13, 126.92, 129.71, 132.49, 135.28, 138.07, 140.85, 143.64, 146.43, 149.21, 152.00, 154.79, 157.57, 160.36, 163.15, 165.93, 168.72, 171.51, 90.68, 100.00, 110.00, 120.00, 130.00, 140.00, 150.00, 160.00, 170.00, 180.00, ],[8.1628, 7.9130, 7.5140, 7.0702, 6.6190, 5.9478, 5.2020, 4.0236, 3.1771, 8.5096, 8.1964, 7.8533, 7.4431, 6.9360, 6.3095, 5.5152, 4.4002, 5.0826, 4.2734, 3.2834, 2.2262, 8.7246, 8.6584, 8.5900, 8.5192, 8.4458, 8.3695, 8.2900, 8.2073, 8.1213, 8.0316, 7.9382, 7.8408, 7.7395, 7.6339, 7.5238, 7.4093, 7.2898, 7.1650, 7.0348, 6.8985, 6.7559, 6.6059, 6.4482, 6.2821, 6.1059, 5.9188, 5.7192, 5.5048, 5.2736, 5.0225, 8.7201, 8.5117, 8.2507, 7.9427, 7.5792, 7.1434, 6.6108, 5.9498, 5.1081, 3.9335, ]
Cp_IG = [60.00, 80.00, 90.67, 100.00, 111.67, 120.00, 140.00, 160.00, 180.00, 200.00, 220.00, 240.00, 260.00, 273.15, 280.00, 298.15, 300.00, 320.00, 340.00, 360.00, 380.00, 400.00, 450.00, 500.00, 550.00, 600.00, 650.00, 700.00, 750.00, 800.00, 850.00, 900.00, 950.00, 1000.00, 1050.00, 1100.00, 1150.00, 1200.00, 1300.00, 1400.00, 1500.00, ],[33.2680, 33.2720, 33.2730, 33.2760, 33.2780, 33.2800, 33.2910, 33.3180, 33.3830, 33.5130, 33.7310, 34.0590, 34.5080, 34.8710, 35.0820, 35.7060, 35.7750, 36.5780, 37.4770, 38.4580, 39.5050, 40.6050, 43.5050, 46.5090, 49.5220, 52.4910, 55.3880, 58.1950, 60.9020, 63.5040, 65.9970, 68.3770, 70.6460, 72.8020, 74.8500, 76.7910, 78.6280, 80.3660, 83.5620, 86.4190, 88.9720, ]
Cp_liquid = [90.72, 92.00, 94.00, 96.00, 98.00, 100.00, 105.00, 110.00, 111.51, 120.00, 130.00, 140.00, 150.00, 160.00, 170.00, 180.00, 190.00, ],[54.0230, 54.0940, 54.2190, 54.3580, 54.5090, 54.6730, 55.1290, 55.6550, 55.8280, 56.9410, 58.6850, 61.1700, 64.9320, 71.1570, 83.2180, 116.9900, 1508.2000, ]
Dens_liquid = [90.69, 94.00, 100.00, 104.00, 110.00, 114.00, 120.00, 124.00, 130.00, 134.00, 140.00, 144.00, 150.00, 154.00, 160.00, 164.00, 170.00, 174.00, 180.00, 184.00, 188.00, ],[0.0281, 0.0279, 0.0274, 0.0270, 0.0265, 0.0261, 0.0255, 0.0252, 0.0246, 0.0241, 0.0235, 0.0230, 0.0223, 0.0218, 0.0210, 0.0204, 0.0194, 0.0186, 0.0172, 0.0160, 0.0143, ]
Vapor_pressure_liquid = [90.69, 92.00, 94.00, 96.00, 98.00, 100.00, 102.00, 104.00, 106.00, 108.00, 110.00, 112.00, 114.00, 116.00, 118.00, 120.00, 122.00, 124.00, 126.00, 128.00, 130.00, 132.00, 134.00, 136.00, 138.00, 140.00, 142.00, 144.00, 146.00, 148.00, 150.00, 152.00, 154.00, 156.00, 158.00, 160.00, 162.00, 164.00, 166.00, 168.00, 170.00, 172.00, 174.00, 176.00, 178.00, 180.00, 182.00, 184.00, 186.00, 188.00, 190.00, 190.56, ],[0.1170, 0.1380, 0.1761, 0.2223, 0.2778, 0.3438, 0.4216, 0.5128, 0.6187, 0.7410, 0.8813, 1.0413, 1.2228, 1.4275, 1.6574, 1.9143, 2.2002, 2.5170, 2.8667, 3.2514, 3.6732, 4.1341, 4.6363, 5.1819, 5.7730, 6.4118, 7.1006, 7.8415, 8.6368, 9.4887, 10.4000, 11.3720, 12.4080, 13.5090, 14.6800, 15.9210, 17.2350, 18.6260, 20.0960, 21.6470, 23.2830, 25.0070, 26.8220, 28.7320, 30.7400, 32.8520, 35.0710, 37.4050, 39.8600, 42.4480, 45.1860, 45.9920, ]
Second_Virial_Coefficient = [110.83, 112.43, 114.45, 116.79, 121.25, 128.84, 136.75, 148.28, 162.29, 178.41, 202.49, 221.10, 243.80, 273.17, 200.00, 250.00, 273.15, 293.15, 300.00, 313.15, 333.15, 353.15, 373.15, 423.15, 473.15, 523.15, 573.15, 623.15, 673.15, 723.15, 773.15, 873.15, 973.15, 1073.15, 1173.15, 1273.15, ],[-330.1000, -319.9000, -307.8000, -295.5000, -274.5000, -244.3000, -218.9000, -187.7000, -158.4000, -132.2000, -103.4000, -85.8000, -70.3000, -53.7000, -105.4200, -66.2000, -54.4300, -45.7000, -43.0200, -38.2600, -31.8400, -26.2300, -21.3000, -11.2500, -3.5600, 2.4600, 7.2700, 11.1500, 14.3300, 16.9300, 19.0900, 22.3700, 24.6500, 26.2500, 27.3900, 28.2200, ]
