Name = "WATER"
CASNumber = "7732-18-5"
Formula = "H2O"
StructuralFormula = "HOH"
ChemicalName = "WATER"
Family = "OTHER INORGANICS"
SubFamily = ""
MolarMass = 1.801530e+01
Tc = 6.471300e+02
Pc = 2.205500e+02
Vc = 5.594780e+01
Zc = 2.290000e-01
omega = 3.448610e-01
VdWArea = 2.260000e+08
VdWVolume = 1.237000e-02
DipoleMoment = 6.170000e-30
Ttriple = ""
Ptriple = ""
Psat_model = "DIPPR"
Psat_unitP = "Pa"
Psat_param = [7.364900e+01, -7.258200e+03, -7.303700e+00, 4.165300e-06, 2.000000e+00, ]
Psat_limits = [2.731600e+02, 6.471300e+02, ]
SecondVirialCoefficient = ""
Cp = ""
DielectricConstant = ""
dados = [273.10, 283.10, 293.10, 303.10, 313.10, 323.10, 333.10, 343.10, 353.10, 363.10, 373.10, 383.10, 393.10, 403.10, 413.10, 423.10, 273.15, 283.15, 293.15, 303.15, 313.15, 323.15, 333.15, 343.15, 353.15, 363.15, 373.15, 383.15, 393.15, 403.15, 413.15, 423.15, 433.15, 443.15, 453.15, 463.15, 473.15, 483.15, 493.15, 503.15, 513.15, 523.15, 533.15, 543.15, 553.15, 563.15, 573.15, 583.15, 593.15, 603.15, 613.15, 623.15, 633.15, 643.15, 273.16, 274.15, 278.15, 283.15, 288.15, 293.15, 298.15, 303.15, 308.15, 313.15, 318.15, 323.15, 328.15, 333.15, 338.15, 343.15, 348.15, 353.15, 358.15, 363.15, 368.15, 373.15, 378.15, 383.15, 393.15, 403.15, 413.15, 423.15, 433.15, 443.15, 453.15, 463.15, 473.15, 483.15, 493.15, 503.15, 513.15, 523.15, 533.15, 543.15, 553.15, 563.15, 573.15, 583.15, 593.15, 603.15, 613.15, 623.15, 633.15, 643.15, 273.15, 283.15, 293.15, 303.15, 313.15, 323.15, 333.15, 343.15, 353.15, 363.15, 373.15, 383.15, 393.15, 403.15, 413.15, 423.15, 433.15, 443.15, 453.15, 463.15, 473.15, 483.15, 493.15, 503.15, 513.15, 523.15, 533.15, 543.15, 553.15, 563.15, 573.15, 583.15, 593.15, 603.15, 613.15, 623.15, 633.15, 638.15, 643.15, 303.15, 333.15, 313.15, 333.15, 353.15, 449.80, 519.30, 588.70, 323.15, 373.15, 373.15, 373.15, 386.05, 471.95, ],[0.0061, 0.0123, 0.0234, 0.0424, 0.0738, 0.1234, 0.1992, 0.3117, 0.4736, 0.7011, 1.0132, 1.4327, 1.9853, 2.7011, 3.6136, 4.7597, 0.0061, 0.0123, 0.0234, 0.0425, 0.0738, 0.1235, 0.1994, 0.3119, 0.4739, 0.7014, 1.0135, 1.4327, 1.9853, 2.7010, 3.6130, 4.7580, 6.1780, 7.9170, 10.0210, 12.5440, 15.5380, 19.0620, 23.1800, 27.9500, 33.4400, 39.7300, 46.8800, 54.9900, 64.1200, 74.3600, 85.8100, 98.5600, 112.7400, 128.4500, 145.8600, 165.1300, 186.5100, 210.3000, 0.0061, 0.0066, 0.0087, 0.0123, 0.0171, 0.0234, 0.0317, 0.0425, 0.0563, 0.0738, 0.0959, 0.1234, 0.1575, 0.1993, 0.2502, 0.3118, 0.3856, 0.4737, 0.5782, 0.7012, 0.8453, 1.0132, 1.2079, 1.4324, 1.9848, 2.7002, 3.6119, 4.7572, 6.1766, 7.9147, 10.0190, 12.5420, 15.5370, 19.0620, 23.1780, 27.9510, 33.4470, 39.7370, 46.8950, 54.9990, 64.1320, 74.3800, 85.8380, 98.6050, 112.7900, 128.5200, 145.9400, 165.2100, 186.5500, 210.3000, 0.0061, 0.0123, 0.0234, 0.0425, 0.0738, 0.1234, 0.1993, 0.3118, 0.4738, 0.7012, 1.0133, 1.4325, 1.9848, 2.7002, 3.6119, 4.7572, 6.1766, 7.9147, 10.0190, 12.5420, 15.5370, 19.0620, 23.1780, 27.9500, 33.4460, 39.7360, 46.8930, 54.9960, 64.1290, 74.3750, 85.8320, 98.5970, 112.7800, 128.5100, 145.9300, 165.2100, 186.5600, 198.1100, 210.3300, 0.0423, 0.1999, 0.0738, 0.1958, 0.4735, 9.1010, 37.0200, 105.9000, 0.1234, 1.0121, 1.0123, 1.0128, 1.5761, 15.1170, ]
index = 1076.000000
vcosmo = 25.734540
sigma = [0.000000, 0.000000, 0.000000, 0.000000, 0.000000, 0.000000, 0.000000, 0.000000, 0.000000, 0.633946, 2.377619, 2.968565, 1.444556, 1.822042, 2.003554, 2.545643, 1.958697, 0.996725, 0.401364, 0.487173, 1.165355, 0.803501, 1.348667, 0.060873, 0.018528, 0.836695, 1.078314, 0.499516, 1.156891, 0.733892, 0.706733, 1.390222, 0.917418, 1.442661, 0.433118, 0.950354, 1.229484, 2.308848, 2.324488, 2.722118, 1.368181, 2.053392, 0.080147, 0.000000, 0.000000, 0.000000, 0.000000, 0.000000, 0.000000, 0.000000, 0.000000, ]
acosmo = 43.269280
z = [0.000000, 0.000000, 0.000000, 0.000000, 0.000000, 0.000000, 0.000000, 0.000000, 0.000000, 0.014651, 0.054949, 0.068607, 0.033385, 0.042109, 0.046304, 0.058833, 0.045268, 0.023035, 0.009276, 0.011259, 0.026933, 0.018570, 0.031169, 0.001407, 0.000428, 0.019337, 0.024921, 0.011544, 0.026737, 0.016961, 0.016333, 0.032130, 0.021203, 0.033341, 0.010010, 0.021964, 0.028415, 0.053360, 0.053721, 0.062911, 0.031620, 0.047456, 0.001852, 0.000000, 0.000000, 0.000000, 0.000000, 0.000000, 0.000000, 0.000000, 0.000000, ]
V_i = 10.689986
q = 2.930704
r = 3.413381
alphaprime = 8287227.862001
cNE = 888.141395
cNE_T = 1129191.164512
cHB = 43069954.705586
v = 3.131789
sigmaHB = 0.008400
rnorm = 3.131789
H_vap = [273.16, 274.15, 283.15, 293.15, 303.15, 313.15, 323.15, 333.15, 343.15, 353.15, 363.15, 373.15, 383.15, 393.15, 403.15, 413.15, 423.15, 433.15, 443.15, 453.15, 463.15, 473.15, 483.15, 493.15, 503.15, 513.15, 523.15, 533.15, 543.15, 553.15, 563.15, 573.15, 583.15, 593.15, 603.15, 613.15, 623.15, 633.15, 640.65, 643.15, 645.65, ],[45.0470, 45.0060, 44.6220, 44.1970, 43.7720, 43.3430, 42.9100, 42.4730, 42.0310, 41.5810, 41.1230, 40.6550, 40.1720, 39.6770, 39.1650, 38.6350, 38.0860, 37.5130, 36.9170, 36.2920, 35.6380, 34.9510, 34.2290, 33.4690, 32.6630, 31.8090, 30.9030, 29.9390, 28.9070, 27.7990, 26.6030, 25.3060, 23.8850, 22.3120, 20.5430, 18.5110, 16.0880, 12.9910, 9.6886, 8.1140, 5.7450, ]
Cp_IG = [273.15, 293.15, 313.15, 333.15, 353.15, 373.15, 393.15, 413.15, 433.15, 453.15, 473.15, 493.15, 513.15, 533.15, 553.15, 573.15, 583.15, 593.15, 603.15, 613.15, 623.15, 633.15, 643.15, 653.15, 663.15, 673.15, 693.15, 713.15, 733.15, 753.15, 773.15, 793.15, 813.15, 833.15, 853.15, 873.15, 923.15, 973.15, 1023.15, 1073.15, 1123.15, 1173.15, 1223.15, 1273.15, 1373.15, 1473.15, 1573.15, 1673.15, 1773.15, 1873.15, 1973.15, 2073.15, 2173.15, 2273.15, ],[33.4900, 33.5620, 33.6520, 33.7780, 33.9050, 34.0490, 34.2110, 34.3730, 34.5530, 34.7510, 34.9490, 35.1480, 35.3640, 35.5800, 35.7960, 36.0300, 36.1380, 36.2470, 36.3550, 36.4810, 36.5890, 36.6970, 36.8230, 36.9490, 37.0570, 37.1830, 37.4180, 37.6520, 37.9040, 38.1380, 38.3900, 38.6430, 38.8770, 39.1470, 39.3990, 39.6510, 40.2820, 40.9310, 41.5610, 42.1920, 42.8220, 43.4350, 44.0470, 44.6420, 45.7590, 46.8210, 47.7940, 48.7130, 49.5420, 50.2980, 51.0010, 51.6500, 52.2620, 52.8030, ]
Cp_liquid = [273.15, 293.15, 313.15, 333.15, 353.15, 373.15, 393.15, 413.15, 433.15, 453.15, 473.15, 493.15, 493.15, 513.15, 513.15, 513.15, 533.15, ],[76.1680, 75.3580, 75.3400, 75.3580, 75.5560, 75.9520, 76.5290, 77.2490, 78.1320, 79.2850, 80.8160, 82.8340, 82.9060, 85.5000, 85.5900, 85.6980, 89.4810, ]
Dens_liquid = [273.16, 274.15, 275.15, 276.15, 277.15, 278.15, 279.15, 280.15, 281.15, 282.15, 283.15, 293.15, 303.15, 313.15, 323.15, 333.15, 343.15, 353.15, 363.15, 373.15, 383.15, 393.15, 403.15, 413.15, 423.15, 433.15, 443.15, 453.15, 463.15, 473.15, 483.15, 493.15, 503.15, 513.15, 523.15, 533.15, 543.15, 553.15, 563.15, 573.15, 583.15, 593.15, 603.15, 613.15, 623.15, 633.15, 647.13, 273.16, 274.15, 275.15, 276.15, 277.15, 278.15, 279.15, 280.15, 281.15, 282.15, 283.15, 293.15, 303.15, 313.15, 323.15, 333.15, ],[0.0555, 0.0555, 0.0555, 0.0555, 0.0555, 0.0555, 0.0555, 0.0555, 0.0555, 0.0555, 0.0555, 0.0554, 0.0553, 0.0551, 0.0548, 0.0546, 0.0543, 0.0539, 0.0536, 0.0532, 0.0528, 0.0524, 0.0519, 0.0514, 0.0509, 0.0504, 0.0498, 0.0492, 0.0486, 0.0480, 0.0473, 0.0466, 0.0459, 0.0452, 0.0444, 0.0435, 0.0426, 0.0417, 0.0406, 0.0395, 0.0384, 0.0370, 0.0356, 0.0339, 0.0319, 0.0293, 0.0179, 0.0555, 0.0555, 0.0555, 0.0555, 0.0555, 0.0555, 0.0555, 0.0555, 0.0555, 0.0555, 0.0555, 0.0554, 0.0553, 0.0551, 0.0548, 0.0546, ]
Vapor_pressure_liquid = [273.16, 274.15, 278.15, 283.15, 288.15, 293.15, 298.15, 303.15, 308.15, 313.15, 318.15, 323.15, 328.15, 333.15, 338.15, 343.15, 348.15, 353.15, 358.15, 363.15, 368.15, 373.15, 378.15, 383.15, 393.15, 403.15, 413.15, 423.15, 433.15, 443.15, 453.15, 463.15, 473.15, 483.15, 493.15, 503.15, 513.15, 523.15, 533.15, 543.15, 553.15, 563.15, 573.15, 583.15, 593.15, 603.15, 613.15, 623.15, 633.15, 643.15, 647.13, ],[0.0061, 0.0066, 0.0087, 0.0123, 0.0171, 0.0234, 0.0317, 0.0425, 0.0563, 0.0738, 0.0959, 0.1234, 0.1575, 0.1993, 0.2502, 0.3118, 0.3856, 0.4737, 0.5782, 0.7012, 0.8453, 1.0132, 1.2079, 1.4324, 1.9848, 2.7002, 3.6119, 4.7572, 6.1766, 7.9147, 10.0190, 12.5420, 15.5370, 19.0620, 23.1780, 27.9510, 33.4470, 39.7370, 46.8950, 54.9990, 64.1320, 74.3800, 85.8380, 98.6050, 112.7900, 128.5200, 145.9400, 165.2100, 186.5500, 210.3000, 220.5500, ]
Second_Virial_Coefficient = [273.15, 303.15, 333.15, 363.15, 393.15, 423.15, 453.15, 483.15, 513.15, 543.15, 573.15, 598.15, 623.15, 648.15, 683.15, 733.15, 793.15, 893.15, 993.15, 1123.15, 1273.15, 1373.15, 1473.15, 1573.15, 1673.15, 1773.15, 1873.15, 1973.15, 2073.15, 2173.15, 2273.15, ],[-1782.8000, -1066.3000, -704.9300, -501.0000, -375.2600, -292.0300, -233.8400, -191.5000, -159.4300, -134.7500, -115.1200, -101.7900, -90.6160, -80.8880, -69.7190, -56.9280, -45.2180, -31.5270, -22.1590, -13.6920, -7.0259, -3.7832, -1.0809, 1.0809, 2.8824, 4.5038, 5.7649, 7.0259, 7.9267, 8.8274, 9.5480, ]
