Name = "OCTANE"
CASNumber = "111-65-9"
Formula = "C8H18"
StructuralFormula = "CH3(CH2)6CH3"
ChemicalName = "OCTANE"
Family = "N-ALKANES"
SubFamily = ""
MolarMass = 1.142310e+02
Tc = 5.687000e+02
Pc = 2.490000e+01
Vc = 4.860000e+02
Zc = 2.560000e-01
omega = 3.995520e-01
VdWArea = 1.234000e+09
VdWVolume = 8.872000e-02
DipoleMoment = 0.000000e+00
Ttriple = ""
Ptriple = ""
Psat_model = "DIPPR"
Psat_unitP = "Pa"
Psat_param = [9.608400e+01, -7.900200e+03, -1.100300e+01, 7.180200e-06, 2.000000e+00, ]
Psat_limits = [2.163800e+02, 5.687000e+02, ]
SecondVirialCoefficient = ""
Cp = ""
DielectricConstant = ""
dados = [298.15, 308.15, 398.15, 423.15, 448.15, 473.15, 498.15, 523.15, 548.15, 326.02, 326.08, 329.56, 329.61, 332.77, 335.74, 339.74, 344.31, 344.32, 348.97, 348.97, 353.28, 359.07, 364.38, 364.38, 370.78, 370.78, 377.38, 384.43, 392.07, 397.47, 397.48, 399.19, 399.72, 412.97, 428.33, 428.69, 440.88, 440.91, 457.05, 472.44, 482.05, 490.79, 496.48, 510.48, 510.48, 513.14, 513.14, 527.45, 527.46, 533.89, 541.97, 552.91, 552.91, 563.55, 563.55, 568.74, 216.15, 222.85, 226.75, 231.85, 239.25, 247.15, 252.05, 258.45, 267.85, 273.55, 281.27, 286.57, 292.42, 304.66, 312.45, 318.29, 323.01, 327.00, 333.55, 338.86, 349.07, 356.78, 363.06, 368.39, 377.20, 384.39, 390.52, 395.89, 398.82, 400.68, 405.02, 409.01, 416.12, 425.21, 298.14, 337.60, 347.72, 355.36, 366.86, 375.58, 388.77, 398.82, 414.09, 425.80, 216.00, 256.00, 296.00, 336.00, 376.00, 416.00, 456.00, 496.00, 536.00, 568.00, 214.15, 220.15, 226.15, 228.15, 230.15, 234.15, 241.15, 249.15, 252.15, 255.15, 260.15, 269.15, 273.65, 276.95, 279.65, 284.05, 285.95, 287.65, 294.45, 299.42, 306.87, 312.45, 316.96, 320.76, 327.01, 332.06, 341.76, 349.08, 360.08, 368.40, 375.19, 380.97, 386.02, 390.53, 394.62, 398.36, 398.83, 400.12, 401.81, 405.03, 408.05, 416.12, 425.23, 428.15, 433.15, 438.15, 443.15, 453.15, 463.15, 473.15, 483.15, 493.15, 503.15, 513.15, 523.15, 533.15, 543.15, 553.15, 563.15, 568.65, 216.60, 218.51, 223.23, 230.42, 238.07, 250.09, 259.40, 278.41, 289.56, 297.11, 359.18, 361.17, 363.20, 365.18, 367.18, 369.22, 371.19, 373.18, 377.25, 381.22, 383.23, 386.16, 388.16, 390.24, 393.11, 323.15, 323.15, 423.15, 443.15, ],[0.0185, 0.0320, 1.0133, 1.9049, 3.3437, 5.4716, 8.5519, 12.7970, 18.5830, 0.0766, 0.0767, 0.0897, 0.0898, 0.1031, 0.1170, 0.1382, 0.1661, 0.1662, 0.1993, 0.1993, 0.2344, 0.2895, 0.3489, 0.3491, 0.4333, 0.4333, 0.5365, 0.6674, 0.8370, 0.9758, 0.9761, 1.0240, 1.0390, 1.5260, 2.2048, 2.2281, 2.8868, 2.9334, 4.0510, 5.4675, 6.5284, 7.6541, 8.3847, 10.5240, 10.5730, 10.9940, 11.0440, 13.7250, 13.7880, 15.1180, 17.0210, 19.9100, 19.9640, 23.0810, 23.1080, 24.8620, 0.0000, 0.0001, 0.0001, 0.0001, 0.0003, 0.0005, 0.0008, 0.0013, 0.0027, 0.0040, 0.0067, 0.0093, 0.0133, 0.0267, 0.0400, 0.0533, 0.0667, 0.0800, 0.1067, 0.1333, 0.2000, 0.2666, 0.3333, 0.4000, 0.5333, 0.6666, 0.7999, 0.9333, 1.0132, 1.0666, 1.1999, 1.3332, 1.5999, 1.9998, 0.0187, 0.1266, 0.1899, 0.2532, 0.3799, 0.5066, 0.7599, 1.0133, 1.5200, 2.0271, 0.0000, 0.0010, 0.0163, 0.1178, 0.5153, 1.6040, 3.9490, 8.2730, 15.5500, 24.5800, 0.0000, 0.0000, 0.0001, 0.0001, 0.0001, 0.0001, 0.0003, 0.0006, 0.0008, 0.0010, 0.0015, 0.0030, 0.0040, 0.0050, 0.0060, 0.0080, 0.0090, 0.0100, 0.0150, 0.0200, 0.0300, 0.0400, 0.0500, 0.0600, 0.0800, 0.1000, 0.1500, 0.2000, 0.3000, 0.4000, 0.5000, 0.6000, 0.7000, 0.8000, 0.9000, 1.0000, 1.0133, 1.0500, 1.1000, 1.2000, 1.3000, 1.6000, 2.0000, 2.1429, 2.4060, 2.6940, 3.0070, 3.7150, 4.5430, 5.5020, 6.6060, 7.8690, 9.3070, 10.9400, 12.7900, 14.8900, 17.2900, 20.0200, 23.1200, 24.8900, 0.0000, 0.0000, 0.0000, 0.0001, 0.0002, 0.0006, 0.0013, 0.0053, 0.0105, 0.0157, 0.2904, 0.3117, 0.3348, 0.3585, 0.3837, 0.4109, 0.4387, 0.4684, 0.5338, 0.6047, 0.6430, 0.7025, 0.7457, 0.7925, 0.8615, 0.0671, 0.0676, 1.9195, 3.0020, ]
index = 23.000000
vcosmo = 189.792750
sigma = [0.000000, 0.000000, 0.000000, 0.000000, 0.000000, 0.000000, 0.000000, 0.000000, 0.000000, 0.000000, 0.000000, 0.000000, 0.000000, 0.000000, 0.000000, 0.000000, 0.000000, 0.000000, 0.000000, 0.000000, 0.000000, 0.523937, 11.247252, 31.223987, 44.667164, 34.268944, 31.934651, 25.110121, 17.661630, 0.390705, 0.000000, 0.000000, 0.000000, 0.000000, 0.000000, 0.000000, 0.000000, 0.000000, 0.000000, 0.000000, 0.000000, 0.000000, 0.000000, 0.000000, 0.000000, 0.000000, 0.000000, 0.000000, 0.000000, 0.000000, 0.000000, ]
acosmo = 197.028390
z = [0.000000, 0.000000, 0.000000, 0.000000, 0.000000, 0.000000, 0.000000, 0.000000, 0.000000, 0.000000, 0.000000, 0.000000, 0.000000, 0.000000, 0.000000, 0.000000, 0.000000, 0.000000, 0.000000, 0.000000, 0.000000, 0.002659, 0.057084, 0.158475, 0.226704, 0.173929, 0.162081, 0.127444, 0.089640, 0.001983, 0.000000, 0.000000, 0.000000, 0.000000, 0.000000, 0.000000, 0.000000, 0.000000, 0.000000, 0.000000, 0.000000, 0.000000, 0.000000, 0.000000, 0.000000, 0.000000, 0.000000, 0.000000, 0.000000, 0.000000, 0.000000, ]
V_i = 102.028000
q = 9.296031
r = 11.370039
alphaprime = 8287227.862001
cNE = 518.434496
cNE_T = 1551485.870421
cHB = 43069954.705586
v = 8.973408
sigmaHB = 0.008400
rnorm = 8.973408
H_vap = [398.81, 298.14, 337.60, 347.72, 355.36, 366.86, 375.59, 388.77, 398.82, 414.09, 425.80, 246.94, 257.13, 267.32, 277.51, 287.70, 297.88, 308.07, 318.26, 328.45, 338.64, 348.82, 359.01, 369.20, 379.39, 389.57, 399.76, 409.95, 420.14, 430.33, 440.51, 450.70, 460.89, 471.08, 481.27, 491.45, 501.64, 511.83, 298.15, 313.15, 333.15, 353.15, 298.15, 398.80, 298.20, 298.20, 298.20, 298.20, ],[34.4130, 41.4860, 38.8730, 38.1730, 37.6520, 36.8170, 36.1790, 35.2000, 34.4310, 33.1940, 32.1750, 44.8860, 44.1800, 43.4890, 42.8110, 42.1450, 41.4870, 40.8350, 40.1860, 39.5350, 38.8790, 38.2140, 37.5380, 36.8450, 36.1330, 35.3980, 34.6370, 33.8460, 33.0220, 32.1600, 31.2550, 30.3000, 29.2900, 28.2120, 27.0560, 25.8030, 24.4340, 22.9170, 41.4700, 40.4800, 39.1000, 37.7900, 41.4900, 34.4100, 41.5900, 41.5000, 41.4800, 41.4600, ]
Cp_IG = [200.00, 298.15, 300.00, 400.00, 500.00, 600.00, 700.00, 800.00, 900.00, 1000.00, 1100.00, 1200.00, 1300.00, 1400.00, 1500.00, ],[144.7700, 187.7800, 188.7000, 239.7400, 286.8100, 326.8000, 360.2000, 388.3000, 411.7000, 431.4000, 448.5000, 463.0000, 477.0000, 490.0000, 498.0000, ]
Cp_liquid = [222.61, 226.74, 230.21, 239.13, 249.17, 259.50, 269.68, 279.35, 289.27, 297.58, 297.54, 313.45, 333.40, 353.32, 373.50, 386.09, 230.00, 240.00, 250.00, 260.00, 270.00, 273.15, 280.00, 290.00, 298.15, 300.00, 310.00, 320.00, 330.00, 340.00, 350.00, 360.00, 370.00, 380.00, 390.00, 400.00, 410.00, 420.00, 430.00, 440.00, 450.00, 460.00, ],[232.5900, 233.0300, 233.4300, 234.9800, 237.1900, 240.2500, 243.4900, 246.9100, 250.6900, 253.8900, 252.4500, 259.9900, 268.7800, 277.9200, 286.8300, 294.1400, 233.4100, 235.1400, 237.4600, 240.3000, 243.5900, 244.7000, 247.2400, 251.1800, 254.5500, 255.3300, 259.6400, 264.0800, 268.6600, 273.3800, 278.2300, 283.2200, 288.3500, 293.6200, 299.0200, 304.5600, 310.2400, 316.0500, 322.0000, 328.0900, 334.3200, 340.6800, ]
Dens_liquid = [333.15, 343.15, 353.15, 363.15, 373.15, 383.15, 393.15, 403.15, 413.15, 423.15, 433.15, 443.15, 453.15, 463.15, 473.15, 483.15, 493.15, 503.15, 513.15, 523.15, 533.15, 543.15, 553.15, ],[0.0059, 0.0058, 0.0057, 0.0056, 0.0056, 0.0055, 0.0054, 0.0053, 0.0052, 0.0051, 0.0051, 0.0050, 0.0049, 0.0048, 0.0047, 0.0045, 0.0044, 0.0043, 0.0042, 0.0040, 0.0038, 0.0036, 0.0033, ]
Vapor_pressure_liquid = [298.15, 308.15, 326.02, 326.08, 329.56, 329.61, 332.77, 335.74, 339.74, 344.31, 344.32, 348.97, 348.97, 353.28, 359.07, 364.38, 364.38, 370.78, 370.78, 377.38, 384.43, 392.07, 397.47, 397.48, 399.19, 399.72, 298.14, 337.60, 347.72, 355.36, 366.86, 375.58, 388.77, 398.82, 414.09, 425.80, 228.15, 230.15, 234.15, 241.15, 249.15, 252.15, 255.15, 260.15, 269.15, 273.65, 276.95, 279.65, 284.05, 285.95, 287.65, 294.45, 299.42, 306.87, 312.45, 316.96, 320.76, 327.01, 332.06, 341.76, 349.08, 360.08, 368.40, 375.19, 380.97, 386.02, 390.53, 394.62, 398.36, 398.83, 400.12, 401.81, 405.03, 408.05, 416.12, 425.23, 428.15, 433.15, 438.15, 443.15, 453.15, 463.15, 473.15, 483.15, 493.15, 503.15, 513.15, 523.15, 533.15, 543.15, 553.15, 563.15, 568.65, ],[0.0185, 0.0320, 0.0766, 0.0767, 0.0897, 0.0898, 0.1031, 0.1170, 0.1382, 0.1661, 0.1662, 0.1993, 0.1993, 0.2344, 0.2895, 0.3489, 0.3491, 0.4333, 0.4333, 0.5365, 0.6674, 0.8370, 0.9758, 0.9761, 1.0240, 1.0390, 0.0187, 0.1266, 0.1899, 0.2532, 0.3799, 0.5066, 0.7599, 1.0133, 1.5200, 2.0271, 0.0001, 0.0001, 0.0001, 0.0003, 0.0006, 0.0008, 0.0010, 0.0015, 0.0030, 0.0040, 0.0050, 0.0060, 0.0080, 0.0090, 0.0100, 0.0150, 0.0200, 0.0300, 0.0400, 0.0500, 0.0600, 0.0800, 0.1000, 0.1500, 0.2000, 0.3000, 0.4000, 0.5000, 0.6000, 0.7000, 0.8000, 0.9000, 1.0000, 1.0133, 1.0500, 1.1000, 1.2000, 1.3000, 1.6000, 2.0000, 2.1429, 2.4060, 2.6940, 3.0070, 3.7150, 4.5430, 5.5020, 6.6060, 7.8690, 9.3070, 10.9400, 12.7900, 14.8900, 17.2900, 20.0200, 23.1200, 24.8900, ]
Second_Virial_Coefficient = [284.38, 312.82, 341.26, 369.69, 398.13, 426.57, 455.01, 483.45, 511.88, 540.32, 568.76, 625.64, 682.51, 739.39, 796.26, 910.02, 1023.77, 1137.52, 1421.90, 380.00, 400.00, 420.00, 440.00, 460.00, 480.00, 500.00, 520.00, 540.00, 560.00, 580.00, ],[-5410.0000, -3760.0000, -2780.0000, -2160.0000, -1730.0000, -1420.0000, -1190.0000, -1010.0000, -872.0000, -758.0000, -664.0000, -518.0000, -411.0000, -329.0000, -264.0000, -169.0000, -102.0000, -53.0000, 26.0000, -1990.0000, -1710.0000, -1490.0000, -1310.0000, -1155.0000, -1025.0000, -920.0000, -834.0000, -760.0000, -695.0000, -638.0000, ]
