Name = "BENZENE"
CASNumber = "71-43-2"
Formula = "C6H6"
StructuralFormula = "-CHCHCHCHCHCH-"
ChemicalName = "BENZENE"
Family = "N-ALKYLBENZENES"
SubFamily = ""
MolarMass = 7.811360e+01
Tc = 5.620500e+02
Pc = 4.895000e+01
Vc = 2.560000e+02
Zc = 2.680000e-01
omega = 2.103000e-01
VdWArea = 6.000000e+08
VdWVolume = 4.840000e-02
DipoleMoment = 0.000000e+00
Ttriple = ""
Ptriple = ""
Psat_model = "DIPPR"
Psat_unitP = "Pa"
Psat_param = [8.310700e+01, -6.486200e+03, -9.219400e+00, 6.984400e-06, 2.000000e+00, ]
Psat_limits = [2.786800e+02, 5.620500e+02, ]
SecondVirialCoefficient = ""
Cp = ""
DielectricConstant = ""
dados = [288.10, 298.10, 308.10, 318.10, 328.10, 338.10, 348.10, 373.10, 383.10, 393.10, 403.10, 413.10, 423.10, 433.10, 443.10, 453.10, 463.10, 473.10, 483.10, 493.10, 503.10, 513.10, 523.10, 533.10, 543.10, 553.10, 283.10, 293.10, 298.10, 303.10, 313.10, 323.10, 333.10, 343.10, 353.10, 373.10, 383.10, 393.10, 403.10, 284.10, 293.80, 304.20, 312.20, 322.20, 334.00, 347.20, 352.60, 354.10, 309.90, 314.00, 318.30, 323.30, 328.20, 338.00, 342.80, 348.10, 352.90, 310.90, 344.30, 377.60, 410.90, 444.30, 477.60, 510.90, 403.10, 413.10, 423.10, 433.10, 443.10, 453.10, 463.10, 473.10, 483.10, 493.10, 503.10, 513.10, 523.10, 533.10, 543.10, 553.10, 310.90, 338.70, 366.50, 394.30, 422.00, 449.80, 477.60, 505.40, 533.10, 560.90, 296.70, 302.30, 306.60, 310.30, 313.90, 316.80, 319.60, 321.90, 324.40, 326.30, 327.90, 283.10, 293.10, 303.10, 313.10, 323.10, 308.10, 318.10, 328.10, 338.10, 348.10, 323.30, 328.30, 333.30, 338.20, 343.20, 348.20, 352.40, 353.30, 348.40, 348.80, 349.40, 350.10, 350.40, 350.90, 351.40, 352.10, 352.60, 353.30, 303.10, 313.10, 323.10, 343.10, 336.30, 339.70, 344.20, 347.90, 353.40, 363.60, 368.80, 373.60, 379.10, 384.70, 393.10, 284.90, 299.20, 315.30, 325.80, 333.70, 340.20, 345.80, 350.60, 353.20, 354.90, 358.80, 362.40, 368.90, 374.50, 379.50, 287.70, 293.70, 296.40, 300.00, 304.20, 308.30, 312.20, 317.40, 322.20, 333.90, 347.20, 352.00, 354.10, 324.80, 330.40, 336.10, 341.80, 347.50, 353.30, 359.10, 364.90, 370.80, 376.80, 382.80, 388.80, 394.80, 420.00, 440.00, 460.00, 480.00, 500.00, 520.00, 540.00, 560.00, 421.60, 424.10, 452.60, 469.90, 475.60, 481.20, 487.40, 496.00, 496.60, 500.50, 506.30, 515.70, 526.00, 527.30, 527.40, 535.60, 546.50, 553.20, 554.70, 333.40, 343.40, 353.40, 363.40, 373.40, 284.10, 287.20, 288.20, 290.20, 291.30, 293.10, 295.50, 297.10, 298.10, 299.10, 299.20, 300.20, 301.20, 302.20, 303.20, 304.20, 308.20, 313.20, 283.15, 293.15, 303.15, 313.15, 323.15, 333.15, 343.15, 353.15, 363.15, 373.15, 383.15, 393.15, 403.15, 413.15, 423.15, 433.15, 443.15, 453.15, 463.15, 473.15, 483.15, 493.15, 503.15, 513.15, 523.15, 533.15, 543.15, 553.15, 340.25, 341.45, 342.65, 343.55, 344.65, 345.85, 346.95, 347.75, 348.85, 349.65, 349.85, 290.08, 302.39, 311.19, 318.69, 325.10, 330.54, 334.89, 338.94, 342.95, 346.24, 349.91, 353.47, 356.19, 358.87, 362.29, 365.23, 367.90, 370.53, 373.15, 375.84, 378.52, 381.32, 283.15, 288.71, 294.26, 299.82, 305.37, 310.93, 316.48, 322.04, 327.59, 333.15, 338.71, 344.26, 349.82, 355.37, 360.93, 366.48, 372.04, 377.59, 298.15, 348.00, 278.00, 284.00, 290.00, 297.00, 303.00, 310.00, 316.00, 323.00, 329.00, 336.00, 342.00, 349.00, 355.00, 362.00, 368.00, 375.00, 381.00, 388.00, 394.00, 401.00, 407.00, 414.00, 420.00, 426.00, 433.00, 439.00, 446.00, 452.00, 459.00, 465.00, 472.00, 478.00, 485.00, 491.00, 498.00, 504.00, 511.00, 517.00, 524.00, 530.00, 537.00, 543.00, 550.00, 556.00, 562.00, 403.98, 413.20, 422.61, 423.01, 432.14, 432.47, 442.54, 452.78, 464.32, 472.45, 474.51, 484.06, 494.89, 506.64, 518.15, 530.18, 541.36, 549.28, 378.15, 383.15, 393.15, 398.15, 403.15, 413.15, 423.15, 433.15, 443.15, 453.15, 463.15, 473.15, 483.15, 493.15, 503.15, 513.15, 523.15, 533.15, 543.15, 553.15, 279.64, 283.05, 288.64, 293.17, 301.87, 308.44, 318.31, 325.80, 331.91, 337.11, 341.66, 345.72, 349.41, 352.78, 353.21, 353.74, 354.37, 355.90, 358.80, 361.52, 368.82, 377.06, 378.15, 383.15, 388.15, 393.15, 398.15, 403.15, 408.15, 413.15, 418.15, 423.15, 428.15, 433.15, 438.15, 443.15, 448.15, 453.15, 458.15, 463.15, 468.15, 473.15, 478.15, 483.15, 488.15, 493.15, 498.15, 503.15, 508.15, 513.15, 518.15, 523.15, 528.15, 533.15, 538.15, 543.15, 548.15, 553.15, 558.15, 270.62, 275.68, 178.25, 180.85, 182.15, 184.45, 188.55, 192.95, 194.75, 196.25, 198.95, 203.85, 209.05, 211.25, 213.05, 216.25, 222.15, 228.35, 231.05, 233.25, 237.25, 244.45, 247.55, 250.05, 252.05, 255.45, 256.85, 258.05, 263.05, 266.75, 272.05, 275.95, 279.64, 283.05, 288.64, 293.17, 301.87, 308.44, 318.31, 325.80, 331.91, 337.11, 341.66, 345.72, 349.41, 352.78, 353.21, 353.74, 354.37, 355.90, 358.80, 361.52, 368.82, 377.06, ],[0.0786, 0.1271, 0.1980, 0.2980, 0.4365, 0.6214, 0.8642, 1.8006, 2.3416, 2.9982, 3.7875, 4.7248, 5.8272, 7.1090, 8.5863, 10.2820, 12.2110, 14.3930, 16.8480, 19.6010, 22.6770, 26.0910, 29.8910, 34.0860, 38.7160, 43.8430, 0.0606, 0.0995, 0.1251, 0.1577, 0.2415, 0.3586, 0.5181, 0.7298, 1.0047, 1.7924, 2.3305, 2.9840, 3.7663, 0.0640, 0.1033, 0.1663, 0.2347, 0.3492, 0.5370, 0.8375, 0.9923, 1.0400, 0.2104, 0.2513, 0.2985, 0.3628, 0.4356, 0.6149, 0.7262, 0.8613, 1.0039, 0.2206, 0.7653, 2.0133, 4.4609, 8.6874, 15.3130, 25.0620, 3.7664, 4.6903, 5.7742, 7.0354, 8.4900, 10.1610, 12.0660, 14.2240, 16.6590, 19.3930, 22.4660, 25.8980, 29.7390, 34.0240, 38.7400, 43.9170, 0.2220, 0.6357, 1.4982, 3.0599, 5.6440, 9.5768, 15.2370, 23.2150, 34.0260, 48.2910, 0.1180, 0.1527, 0.1848, 0.2156, 0.2498, 0.2810, 0.3141, 0.3444, 0.3786, 0.4070, 0.4341, 0.0604, 0.0996, 0.1580, 0.2424, 0.3605, 0.1977, 0.2980, 0.4360, 0.6214, 0.8642, 0.3613, 0.4345, 0.5198, 0.6193, 0.7317, 0.8607, 0.9829, 1.0133, 0.8723, 0.8829, 0.8997, 0.9197, 0.9283, 0.9431, 0.9583, 0.9793, 0.9947, 1.0167, 0.1582, 0.2434, 0.3618, 0.7341, 0.5854, 0.6560, 0.7515, 0.8543, 1.0206, 1.3746, 1.5959, 1.8185, 2.1078, 2.4265, 2.9798, 0.0667, 0.1333, 0.2666, 0.4000, 0.5333, 0.6666, 0.7999, 0.9333, 1.0133, 1.0666, 1.1999, 1.3332, 1.5999, 1.8665, 2.1332, 0.0765, 0.1030, 0.1170, 0.1382, 0.1662, 0.1992, 0.2345, 0.2895, 0.3490, 0.5365, 0.8372, 0.9760, 1.0390, 0.3854, 0.4734, 0.5781, 0.7010, 0.8451, 1.0133, 1.2080, 1.4327, 1.6907, 1.9854, 2.3211, 2.7015, 3.1296, 5.4581, 8.0921, 11.5670, 16.0370, 21.5670, 28.6440, 37.1940, 47.7180, 5.7071, 6.0391, 10.2670, 13.7400, 15.0590, 16.4340, 18.0670, 20.4710, 20.6900, 21.9200, 23.8300, 27.0900, 30.6200, 31.6410, 31.6410, 35.2400, 40.4510, 43.9310, 44.7410, 0.5293, 0.7413, 1.0186, 1.3746, 1.8265, 0.0645, 0.0753, 0.0788, 0.0876, 0.0929, 0.1006, 0.1124, 0.1213, 0.1269, 0.1328, 0.1332, 0.1398, 0.1459, 0.1525, 0.1595, 0.1665, 0.1985, 0.2441, 0.0603, 0.0988, 0.1566, 0.2403, 0.3577, 0.5180, 0.7309, 1.0067, 1.3440, 1.7800, 2.3186, 2.9733, 3.7613, 4.6933, 5.7799, 7.0666, 8.5146, 10.1560, 12.0600, 14.2000, 16.6040, 19.3610, 22.4330, 25.8020, 29.5760, 33.7720, 38.4690, 43.7090, 0.6666, 0.6933, 0.7199, 0.7466, 0.7733, 0.7999, 0.8266, 0.8533, 0.8799, 0.9066, 0.9119, 0.0863, 0.1539, 0.2248, 0.3046, 0.3895, 0.4757, 0.5551, 0.6381, 0.7298, 0.8127, 0.9135, 1.0204, 1.1085, 1.2014, 1.3278, 1.4453, 1.5580, 1.6760, 1.8006, 1.9353, 2.0794, 2.2344, 0.0607, 0.0806, 0.1057, 0.1370, 0.1755, 0.2224, 0.2790, 0.3467, 0.4273, 0.5221, 0.6330, 0.7619, 0.9106, 1.0813, 1.2761, 1.4971, 1.7467, 2.0271, 0.1267, 0.8609, 0.0461, 0.0635, 0.0860, 0.1203, 0.1581, 0.2139, 0.2737, 0.3598, 0.4499, 0.5770, 0.7074, 0.8877, 1.0700, 1.3170, 1.5630, 1.8930, 2.2160, 2.6450, 3.0610, 3.6070, 4.1300, 4.8110, 5.4590, 6.1690, 7.0820, 7.9420, 9.0390, 10.0700, 11.3700, 12.5800, 14.1100, 15.5300, 17.3200, 18.9600, 21.0300, 22.9300, 25.3000, 27.4800, 30.2000, 32.6800, 35.7800, 38.6200, 42.1600, 45.4100, 48.8800, 3.8594, 4.7288, 5.7522, 5.7998, 6.9549, 7.0015, 8.4708, 10.1930, 12.4280, 14.2030, 14.6840, 17.0680, 20.1040, 23.8090, 27.9240, 32.7400, 37.7890, 41.7620, 2.0587, 2.3427, 2.9999, 3.3768, 3.7886, 4.7246, 5.8243, 7.1047, 8.5832, 10.2780, 12.2070, 14.3900, 16.8460, 19.5970, 22.6660, 26.0770, 29.8590, 34.0470, 38.6870, 43.8420, 0.0500, 0.0600, 0.0800, 0.1000, 0.1500, 0.2000, 0.3000, 0.4000, 0.5000, 0.6000, 0.7000, 0.8000, 0.9000, 1.0000, 1.0133, 1.0300, 1.0500, 1.1000, 1.2000, 1.3000, 1.6000, 2.0000, 2.0590, 2.3430, 2.6560, 3.0000, 3.3770, 3.7890, 4.2370, 4.7250, 5.2530, 5.8240, 6.4410, 7.1050, 7.8180, 8.5830, 9.4020, 10.2780, 11.2120, 12.2070, 13.2650, 14.3900, 15.5820, 16.8460, 18.1830, 19.5970, 21.0900, 22.6660, 24.3270, 26.0770, 27.9190, 29.8590, 31.9000, 34.0470, 36.3070, 38.6870, 41.1950, 43.8420, 46.6390, 0.0300, 0.0400, 0.0000, 0.0000, 0.0000, 0.0000, 0.0000, 0.0000, 0.0000, 0.0000, 0.0000, 0.0000, 0.0001, 0.0001, 0.0001, 0.0001, 0.0003, 0.0006, 0.0008, 0.0010, 0.0015, 0.0030, 0.0040, 0.0050, 0.0060, 0.0080, 0.0090, 0.0100, 0.0150, 0.0200, 0.0300, 0.0400, 0.0500, 0.0600, 0.0800, 0.1000, 0.1500, 0.2000, 0.3000, 0.4000, 0.5000, 0.6000, 0.7000, 0.8000, 0.9000, 1.0000, 1.0133, 1.0300, 1.0500, 1.1000, 1.2000, 1.3000, 1.6000, 2.0000, ]
index = 242.000000
vcosmo = 110.221760
sigma = [0.000000, 0.000000, 0.000000, 0.000000, 0.000000, 0.000000, 0.000000, 0.000000, 0.000000, 0.000000, 0.000000, 0.000000, 0.000000, 0.000000, 0.000000, 0.000000, 0.000000, 0.000000, 1.145879, 11.369835, 13.111599, 12.334509, 8.927863, 7.166957, 7.985454, 4.625790, 5.036367, 9.153316, 6.941324, 4.252507, 12.989727, 7.522921, 8.535525, 0.820125, 0.000000, 0.000000, 0.000000, 0.000000, 0.000000, 0.000000, 0.000000, 0.000000, 0.000000, 0.000000, 0.000000, 0.000000, 0.000000, 0.000000, 0.000000, 0.000000, 0.000000, ]
acosmo = 121.919700
z = [0.000000, 0.000000, 0.000000, 0.000000, 0.000000, 0.000000, 0.000000, 0.000000, 0.000000, 0.000000, 0.000000, 0.000000, 0.000000, 0.000000, 0.000000, 0.000000, 0.000000, 0.000000, 0.009399, 0.093257, 0.107543, 0.101169, 0.073227, 0.058784, 0.065498, 0.037941, 0.041309, 0.075077, 0.056934, 0.034880, 0.106543, 0.061704, 0.070009, 0.006727, 0.000000, 0.000000, 0.000000, 0.000000, 0.000000, 0.000000, 0.000000, 0.000000, 0.000000, 0.000000, 0.000000, 0.000000, 0.000000, 0.000000, 0.000000, 0.000000, 0.000000, ]
V_i = 55.660000
q = 4.997868
r = 5.997335
alphaprime = 8287227.862001
cNE = 738.439436
cNE_T = 4409052.540100
cHB = 43069954.705586
v = 9.280789
sigmaHB = 0.008400
rnorm = 9.280789
H_vap = [310.90, 322.00, 333.10, 344.30, 355.40, 366.50, 377.60, 388.70, 399.80, 410.90, 422.00, 433.10, 444.30, 455.40, 466.50, 477.60, 488.70, 499.80, 314.80, 323.00, 334.00, 353.30, 278.68, 286.52, 294.35, 302.19, 310.03, 317.86, 325.70, 333.54, 341.37, 349.21, 357.05, 364.88, 372.72, 380.56, 388.39, 396.23, 404.07, 411.90, 419.74, 427.58, 435.41, 443.25, 451.09, 458.92, 466.76, 474.60, 482.43, 298.15, 313.15, 328.15, 333.15, 343.15, 353.25, 298.15, 353.30, 307.30, 314.10, 324.40, 332.30, 353.20, ],[33.1180, 32.5010, 31.8840, 31.2480, 30.6310, 29.9410, 29.2330, 28.4880, 27.7260, 26.9450, 26.1460, 25.3110, 24.4760, 23.5680, 22.6420, 21.6250, 20.5360, 19.3550, 32.9190, 32.4470, 31.8290, 30.7580, 34.9700, 34.5400, 34.1100, 33.6800, 33.2500, 32.8100, 32.3700, 31.9300, 31.4800, 31.0200, 30.5600, 30.0900, 29.6100, 29.1200, 28.6300, 28.1200, 27.6000, 27.0700, 26.5200, 25.9600, 25.3800, 24.7800, 24.1600, 23.5100, 22.8400, 22.1200, 21.3700, 33.8200, 33.0030, 32.1920, 31.8390, 31.3750, 30.7710, 33.8300, 30.7200, 33.3500, 33.0100, 32.3800, 31.9200, 30.6500, ]
Cp_IG = [50.00, 100.00, 150.00, 200.00, 200.00, 273.15, 298.15, 300.00, 400.00, 500.00, 600.00, 700.00, 800.00, 900.00, 1000.00, 1100.00, 1200.00, 1300.00, 1400.00, 1500.00, 330.15, 353.70, 357.65, 385.85, 396.05, 420.15, 453.65, ],[33.2700, 35.1100, 41.9400, 53.1700, 53.1700, 74.5550, 82.4400, 83.0200, 113.5200, 139.3500, 160.0900, 176.7800, 190.4500, 201.8200, 211.4100, 219.5600, 226.5200, 232.4900, 237.6500, 242.1100, 92.0900, 99.6900, 101.1600, 109.0600, 111.8400, 119.1700, 127.6600, ]
Cp_liquid = [283.78, 283.78, 293.58, 298.28, 298.50, 303.26, 312.94, 319.19, 327.86, 341.27, 347.62, 348.47, 278.68, 280.00, 290.00, 298.15, 300.00, 310.00, 320.00, 330.00, 340.00, 350.00, 360.00, 370.00, 380.00, 390.00, 400.00, 410.00, 420.00, 430.00, 440.00, 450.00, 460.00, 470.00, 480.00, 490.00, 500.00, ],[133.4700, 133.5300, 135.3800, 136.7000, 136.6100, 137.6700, 139.6900, 140.9600, 144.1400, 146.6400, 148.3500, 149.6200, 132.0400, 132.2900, 134.2400, 135.9500, 136.3600, 138.6000, 140.9300, 143.3400, 145.8000, 148.3000, 150.9000, 153.5000, 156.2000, 158.9000, 161.8000, 164.8000, 168.0000, 171.4000, 175.2000, 179.2000, 183.7000, 188.7000, 194.3000, 200.6000, 207.6000, ]
Dens_liquid = [378.80, 379.40, 382.10, 382.50, 384.70, 386.90, 389.30, 390.20, 394.00, 395.90, 398.90, 400.00, 401.80, 404.90, 405.70, 411.30, 413.00, 419.40, 420.70, 425.40, 428.00, 433.50, 436.70, 443.60, 444.60, 450.60, 451.60, 456.30, 458.80, 463.10, 467.60, 469.50, 477.30, 484.10, 493.10, 501.20, 508.40, 515.80, 526.00, 535.40, 540.90, 545.90, 550.30, 553.10, 284.00, 290.00, 297.00, 303.00, 310.00, 316.00, 323.00, 329.00, 336.00, 342.00, 349.00, 355.00, 362.00, 368.00, 375.00, 381.00, 388.00, 394.00, 401.00, 407.00, 414.00, 420.00, 426.00, 433.00, 439.00, 446.00, 452.00, 459.00, 465.00, 472.00, 478.00, 485.00, 491.00, 498.00, 504.00, 511.00, 517.00, 524.00, 530.00, 537.00, 543.00, 550.00, 298.18, 323.81, 348.38, 373.35, 398.43, 423.59, 278.70, 283.15, 293.15, 298.15, 303.15, 313.15, 323.15, 333.15, 343.15, 353.15, 363.15, 373.15, 383.15, 393.15, 403.15, 413.15, 423.15, 433.15, 443.15, 463.15, 473.15, 483.15, 493.15, 503.15, 513.15, 523.15, 533.15, 543.15, 553.15, 558.15, 561.15, ],[0.0101, 0.0101, 0.0100, 0.0100, 0.0100, 0.0099, 0.0099, 0.0099, 0.0098, 0.0098, 0.0098, 0.0098, 0.0097, 0.0097, 0.0097, 0.0096, 0.0095, 0.0094, 0.0094, 0.0093, 0.0093, 0.0092, 0.0091, 0.0090, 0.0090, 0.0089, 0.0089, 0.0088, 0.0087, 0.0086, 0.0085, 0.0085, 0.0084, 0.0082, 0.0080, 0.0078, 0.0076, 0.0074, 0.0071, 0.0067, 0.0065, 0.0063, 0.0060, 0.0058, 0.0114, 0.0113, 0.0112, 0.0111, 0.0110, 0.0109, 0.0108, 0.0108, 0.0107, 0.0106, 0.0105, 0.0104, 0.0103, 0.0102, 0.0101, 0.0100, 0.0099, 0.0098, 0.0097, 0.0096, 0.0095, 0.0094, 0.0093, 0.0092, 0.0091, 0.0090, 0.0088, 0.0087, 0.0086, 0.0085, 0.0083, 0.0082, 0.0080, 0.0079, 0.0077, 0.0075, 0.0073, 0.0071, 0.0069, 0.0066, 0.0063, 0.0060, 0.0112, 0.0108, 0.0105, 0.0101, 0.0097, 0.0093, 0.0114, 0.0114, 0.0113, 0.0112, 0.0111, 0.0110, 0.0108, 0.0107, 0.0106, 0.0104, 0.0103, 0.0101, 0.0100, 0.0098, 0.0097, 0.0095, 0.0093, 0.0092, 0.0090, 0.0086, 0.0084, 0.0082, 0.0080, 0.0077, 0.0075, 0.0071, 0.0068, 0.0063, 0.0057, 0.0053, 0.0047, ]
Vapor_pressure_liquid = [373.10, 383.10, 393.10, 403.10, 413.10, 423.10, 433.10, 443.10, 453.10, 463.10, 473.10, 483.10, 493.10, 503.10, 513.10, 523.10, 533.10, 543.10, 553.10, 283.10, 293.10, 303.10, 313.10, 323.10, 324.80, 330.40, 336.10, 341.80, 347.50, 353.30, 359.10, 364.90, 370.80, 376.80, 382.80, 388.80, 394.80, 283.15, 293.15, 303.15, 313.15, 323.15, 333.15, 343.15, 353.15, 363.15, 373.15, 383.15, 393.15, 403.15, 413.15, 423.15, 433.15, 443.15, 453.15, 463.15, 473.15, 483.15, 493.15, 503.15, 513.15, 523.15, 533.15, 543.15, 553.15, 290.08, 302.39, 311.19, 318.69, 325.10, 330.54, 334.89, 338.94, 342.95, 346.24, 349.91, 353.47, 356.19, 358.87, 362.29, 365.23, 367.90, 370.53, 373.15, 375.84, 378.52, 381.32, 283.15, 288.71, 294.26, 299.82, 305.37, 310.93, 316.48, 322.04, 327.59, 333.15, 338.71, 344.26, 349.82, 355.37, 360.93, 366.48, 372.04, 377.59, 403.98, 413.20, 422.61, 423.01, 432.14, 432.47, 442.54, 452.78, 464.32, 472.45, 474.51, 484.06, 494.89, 506.64, 518.15, 530.18, 541.36, 549.28, 378.15, 383.15, 393.15, 398.15, 403.15, 413.15, 423.15, 433.15, 443.15, 453.15, 463.15, 473.15, 483.15, 493.15, 503.15, 513.15, 523.15, 533.15, 543.15, 553.15, ],[1.8006, 2.3416, 2.9982, 3.7875, 4.7248, 5.8272, 7.1090, 8.5863, 10.2820, 12.2110, 14.3930, 16.8480, 19.6010, 22.6770, 26.0910, 29.8910, 34.0860, 38.7160, 43.8430, 0.0604, 0.0996, 0.1580, 0.2424, 0.3605, 0.3854, 0.4734, 0.5781, 0.7010, 0.8451, 1.0133, 1.2080, 1.4327, 1.6907, 1.9854, 2.3211, 2.7015, 3.1296, 0.0603, 0.0988, 0.1566, 0.2403, 0.3577, 0.5180, 0.7309, 1.0067, 1.3440, 1.7800, 2.3186, 2.9733, 3.7613, 4.6933, 5.7799, 7.0666, 8.5146, 10.1560, 12.0600, 14.2000, 16.6040, 19.3610, 22.4330, 25.8020, 29.5760, 33.7720, 38.4690, 43.7090, 0.0863, 0.1539, 0.2248, 0.3046, 0.3895, 0.4757, 0.5551, 0.6381, 0.7298, 0.8127, 0.9135, 1.0204, 1.1085, 1.2014, 1.3278, 1.4453, 1.5580, 1.6760, 1.8006, 1.9353, 2.0794, 2.2344, 0.0607, 0.0806, 0.1057, 0.1370, 0.1755, 0.2224, 0.2790, 0.3467, 0.4273, 0.5221, 0.6330, 0.7619, 0.9106, 1.0813, 1.2761, 1.4971, 1.7467, 2.0271, 3.8594, 4.7288, 5.7522, 5.7998, 6.9549, 7.0015, 8.4708, 10.1930, 12.4280, 14.2030, 14.6840, 17.0680, 20.1040, 23.8090, 27.9240, 32.7400, 37.7890, 41.7620, 2.0587, 2.3427, 2.9999, 3.3768, 3.7886, 4.7246, 5.8243, 7.1047, 8.5832, 10.2780, 12.2070, 14.3900, 16.8460, 19.5970, 22.6660, 26.0770, 29.8590, 34.0470, 38.6870, 43.8420, ]
Second_Virial_Coefficient = [281.10, 309.10, 337.20, 365.40, 393.50, 421.60, 449.70, 477.80, 505.90, 534.00, 562.10, 618.30, 674.50, 730.70, 786.90, 899.30, 1012.00, 1124.00, 1405.00, ],[-1800.0000, -1350.0000, -1060.0000, -865.0000, -720.0000, -610.0000, -525.0000, -455.0000, -400.0000, -353.0000, -313.0000, -250.0000, -202.0000, -165.0000, -135.0000, -89.0000, -56.0000, -32.0000, 9.0000, ]
