Name = "METHANOL"
CASNumber = "67-56-1"
Formula = "CH4O"
StructuralFormula = "CH3OH"
ChemicalName = "METHANOL"
Family = "N-ALCOHOLS"
SubFamily = ""
MolarMass = 3.204220e+01
Tc = 5.125000e+02
Pc = 8.084000e+01
Vc = 1.170000e+02
Zc = 2.220000e-01
omega = 5.658310e-01
VdWArea = 3.580000e+08
VdWVolume = 2.171000e-02
DipoleMoment = 5.670000e-30
Ttriple = ""
Ptriple = ""
Psat_model = "DIPPR"
Psat_unitP = "Pa"
Psat_param = [8.271800e+01, -6.904500e+03, -8.862200e+00, 7.466400e-06, 2.000000e+00, ]
Psat_limits = [1.754700e+02, 5.125000e+02, ]
SecondVirialCoefficient = ""
Cp = ""
DielectricConstant = ""
dados = [257.70, 263.10, 273.10, 283.10, 293.10, 303.10, 313.10, 323.10, 333.10, 343.10, 353.10, 262.59, 273.03, 284.47, 295.83, 301.38, 309.61, 320.74, 328.57, 338.59, 349.77, 356.03, 358.15, 363.15, 368.15, 373.15, 378.15, 383.15, 388.15, 393.15, 403.15, 413.15, 423.15, 433.15, 443.15, 453.15, 463.15, 473.15, 483.15, 493.15, 503.15, 229.10, 247.80, 256.90, 267.10, 278.10, 285.20, 294.30, 307.90, 323.00, 337.80, 357.10, 385.60, 411.10, 440.90, 459.60, 476.60, 487.10, 497.10, 288.05, 292.39, 296.47, 300.23, 303.06, 306.03, 309.01, 313.79, 318.56, 322.03, 326.47, 329.58, 333.96, 336.93, 337.87, 341.55, 344.92, 348.83, 352.78, 356.83, 353.46, 362.96, 373.66, 383.28, 392.86, 403.38, 413.11, 423.19, 432.92, 443.04, 453.27, 462.90, 473.19, 483.20, 493.20, 503.20, 298.15, 313.15, 323.15, 333.15, 343.15, 353.15, 363.15, 373.15, 383.15, 393.15, 403.15, 413.15, 423.15, 433.15, 443.15, 453.15, 463.15, 473.15, 243.15, 273.15, 303.15, 299.18, 302.58, 306.41, 309.47, 313.11, 316.52, 316.54, 320.55, 320.57, 325.38, 325.38, 330.85, 330.89, 337.00, 337.65, 337.68, 297.97, 348.09, 398.58, 331.90, 340.10, 345.50, 366.90, 376.60, 382.00, 386.00, 391.60, 395.90, 400.30, 406.00, 409.20, 413.60, 298.15, 338.15, 273.15, 323.45, 348.15, 423.15, ],[0.0133, 0.0197, 0.0388, 0.0721, 0.1275, 0.2157, 0.3509, 0.5513, 0.8397, 1.2431, 1.7945, 0.0200, 0.0400, 0.0800, 0.1500, 0.2000, 0.3000, 0.5000, 0.7000, 1.0500, 1.6000, 2.0000, 2.1529, 2.5513, 3.0081, 3.5293, 4.1215, 4.7917, 5.5471, 6.3960, 8.4030, 10.8800, 13.9100, 17.5700, 21.9500, 27.1400, 33.2600, 40.4300, 48.7900, 58.4400, 69.4400, 0.0013, 0.0067, 0.0133, 0.0267, 0.0533, 0.0800, 0.1333, 0.2666, 0.5333, 1.0132, 2.0265, 5.0663, 10.1330, 20.2650, 30.3980, 40.5300, 50.6630, 60.7950, 0.0982, 0.1247, 0.1552, 0.1886, 0.2177, 0.2521, 0.2913, 0.3649, 0.4535, 0.5288, 0.6404, 0.7298, 0.8734, 0.9833, 1.0200, 1.1771, 1.3374, 1.5464, 1.7831, 2.0565, 1.8300, 2.5443, 3.5957, 4.8181, 6.3511, 8.4676, 10.8790, 13.9340, 17.4780, 21.8970, 27.1870, 33.1080, 40.2510, 48.4490, 57.9710, 68.9740, 0.1690, 0.3530, 0.5530, 0.8410, 1.2460, 1.8010, 2.5460, 3.5240, 4.7900, 6.3870, 8.3760, 10.8340, 13.8430, 17.4900, 21.8550, 27.0240, 33.0830, 40.1370, 0.0044, 0.0409, 0.2211, 0.1790, 0.2129, 0.2574, 0.2983, 0.3543, 0.4144, 0.4149, 0.4964, 0.4971, 0.6123, 0.6125, 0.7703, 0.7715, 0.9873, 1.0126, 1.0137, 0.1689, 1.5098, 7.4660, 0.7824, 1.0891, 1.3717, 2.8813, 3.8770, 4.6010, 5.1840, 6.1000, 6.8930, 7.7370, 8.9950, 9.8230, 10.9600, 0.1694, 1.0310, 0.0401, 0.5642, 1.5051, 14.1310, ]
index = 477.000000
vcosmo = 48.771040
sigma = [0.000000, 0.000000, 0.000000, 0.000000, 0.000000, 0.000000, 0.000000, 0.000000, 0.000000, 0.598418, 1.081461, 1.303511, 0.607371, 0.583950, 0.643976, 1.317544, 1.160424, 0.876048, 0.427921, 1.832751, 3.575744, 6.430778, 6.897190, 5.272597, 7.463464, 5.094136, 1.581691, 2.271141, 1.180852, 1.281897, 1.761958, 1.460004, 0.278651, 1.024001, 0.810134, 2.056298, 0.822218, 1.435817, 3.112013, 1.806080, 1.803216, 0.048332, 0.000000, 0.000000, 0.000000, 0.000000, 0.000000, 0.000000, 0.000000, 0.000000, 0.000000, ]
acosmo = 67.901590
z = [0.000000, 0.000000, 0.000000, 0.000000, 0.000000, 0.000000, 0.000000, 0.000000, 0.000000, 0.008813, 0.015927, 0.019197, 0.008945, 0.008600, 0.009484, 0.019404, 0.017090, 0.012902, 0.006302, 0.026991, 0.052661, 0.094707, 0.101576, 0.077651, 0.109916, 0.075022, 0.023294, 0.033448, 0.017391, 0.018879, 0.025949, 0.021502, 0.004104, 0.015081, 0.011931, 0.030284, 0.012109, 0.021146, 0.045831, 0.026598, 0.026556, 0.000712, 0.000000, 0.000000, 0.000000, 0.000000, 0.000000, 0.000000, 0.000000, 0.000000, 0.000000, ]
V_i = 24.966500
q = 4.775848
r = 5.719810
alphaprime = 8287227.862001
cNE = 732.822523
cNE_T = 989834.707058
cHB = 43069954.705586
v = 4.364918
sigmaHB = 0.008400
rnorm = 4.364918
H_vap = [298.10, 298.00, 338.00, 298.15, 313.15, 323.15, 333.15, 343.15, 353.15, 363.15, 373.15, 383.15, 393.15, 403.15, 413.15, 423.15, 433.15, 443.15, 298.15, 313.15, 323.15, 333.15, 337.85, 343.15, 298.15, 337.80, ],[37.4050, 37.4890, 35.3000, 37.4950, 36.7280, 36.1700, 35.5730, 34.9350, 34.2420, 33.5100, 32.7290, 31.8710, 30.8200, 29.9110, 29.0480, 28.0810, 26.9070, 25.4770, 37.4510, 36.7200, 36.1580, 35.5600, 35.2820, 34.8460, 37.4300, 35.2100, ]
Cp_IG = [50.00, 100.00, 150.00, 200.00, 200.00, 273.16, 298.15, 300.00, 400.00, 500.00, 600.00, 700.00, 800.00, 900.00, 1000.00, 1100.00, 1200.00, 1300.00, 1400.00, 1500.00, ],[34.0000, 36.9500, 38.6400, 39.7100, 39.7100, 42.5900, 44.0600, 44.1700, 51.6300, 59.7000, 67.1900, 73.8600, 79.7600, 84.9500, 89.5400, 93.5700, 97.1200, 100.2400, 102.9800, 105.4000, ]
Cp_liquid = [175.59, 298.15, 337.85, 298.15, 313.15, 333.15, 175.61, 180.00, 190.00, 200.00, 210.00, 220.00, 230.00, 240.00, 250.00, 260.00, 270.00, 280.00, 290.00, 298.15, 310.00, 320.00, 330.00, ],[70.7930, 81.1700, 89.9560, 81.1800, 84.3600, 89.5000, 70.9400, 70.8600, 70.8100, 70.9400, 71.2300, 71.6900, 72.3200, 73.1100, 74.0800, 75.2100, 76.5200, 77.9900, 79.6300, 81.0800, 83.4400, 85.6600, 88.1100, ]
Dens_liquid = [253.10, 263.10, 273.10, 283.10, 293.10, 303.10, 313.10, 323.10, 333.10, 343.10, 353.10, 363.10, 373.10, 383.10, 393.10, 293.15, 298.15, 303.15, 320.00, 340.00, 360.00, 380.00, 400.00, 410.00, 420.00, 430.00, 440.00, 288.15, 298.15, 308.15, 318.15, 298.15, 176.15, 183.15, 193.15, 203.15, 213.15, 223.15, 233.15, 243.15, 253.15, 263.15, 273.15, 293.15, 298.15, ],[0.0259, 0.0256, 0.0253, 0.0250, 0.0247, 0.0244, 0.0241, 0.0238, 0.0236, 0.0232, 0.0229, 0.0226, 0.0223, 0.0219, 0.0215, 0.0247, 0.0245, 0.0244, 0.0239, 0.0233, 0.0226, 0.0219, 0.0212, 0.0208, 0.0203, 0.0199, 0.0193, 0.0248, 0.0245, 0.0242, 0.0240, 0.0245, 0.0282, 0.0280, 0.0277, 0.0274, 0.0270, 0.0268, 0.0265, 0.0262, 0.0259, 0.0256, 0.0253, 0.0247, 0.0246, ]
Vapor_pressure_liquid = [257.70, 263.10, 273.10, 283.10, 293.10, 303.10, 313.10, 323.10, 333.10, 343.10, 353.10, 262.59, 273.03, 284.47, 295.83, 301.38, 309.61, 320.74, 328.57, 338.59, 349.77, 356.03, 358.15, 363.15, 368.15, 373.15, 378.15, 383.15, 388.15, 393.15, 403.15, 413.15, 423.15, 433.15, 443.15, 453.15, 463.15, 473.15, 483.15, 493.15, 503.15, 299.18, 302.58, 306.41, 309.47, 313.11, 316.52, 316.54, 320.55, 320.57, 325.38, 325.38, 330.85, 330.89, 337.00, 337.65, 337.68, 297.97, 348.09, 398.58, 331.90, 340.10, 345.50, 366.90, 376.60, 382.00, 386.00, 391.60, 395.90, 400.30, 406.00, 409.20, 413.60, ],[0.0133, 0.0197, 0.0388, 0.0721, 0.1275, 0.2157, 0.3509, 0.5513, 0.8397, 1.2431, 1.7945, 0.0200, 0.0400, 0.0800, 0.1500, 0.2000, 0.3000, 0.5000, 0.7000, 1.0500, 1.6000, 2.0000, 2.1529, 2.5513, 3.0081, 3.5293, 4.1215, 4.7917, 5.5471, 6.3960, 8.4030, 10.8800, 13.9100, 17.5700, 21.9500, 27.1400, 33.2600, 40.4300, 48.7900, 58.4400, 69.4400, 0.1790, 0.2129, 0.2574, 0.2983, 0.3543, 0.4144, 0.4149, 0.4964, 0.4971, 0.6123, 0.6125, 0.7703, 0.7715, 0.9873, 1.0126, 1.0137, 0.1689, 1.5098, 7.4660, 0.7824, 1.0891, 1.3717, 2.8813, 3.8770, 4.6010, 5.1840, 6.1000, 6.8930, 7.7370, 8.9950, 9.8230, 10.9600, ]
Second_Virial_Coefficient = [333.80, 358.80, 384.40, 410.10, 435.70, 461.30, 486.90, 512.60, 563.80, 615.10, 666.40, 717.60, 820.10, 922.60, 1025.00, 1281.00, 423.15, 448.15, 473.15, 498.15, 523.15, 573.15, 413.15, 433.15, 443.15, 453.15, 463.15, 483.15, 493.15, 503.15, 513.15, 533.15, 543.15, 553.15, 563.15, 333.15, 353.15, 373.15, 298.15, 323.15, 348.15, ],[-966.0000, -644.0000, -467.0000, -358.0000, -285.0000, -233.0000, -195.0000, -166.0000, -124.0000, -96.0000, -77.0000, -62.0000, -42.0000, -30.0000, -21.0000, -9.0000, -320.5000, -258.5000, -218.8000, -181.0000, -156.3000, -115.2000, -384.0000, -320.0000, -289.0000, -263.0000, -240.0000, -209.0000, -194.0000, -185.0000, -174.0000, -157.0000, -147.0000, -141.0000, -134.0000, -1079.0000, -752.0000, -542.0000, -2075.0000, -1185.0000, -737.0000, ]
