Name = "ETHANOL"
CASNumber = "64-17-5"
Formula = "C2H6O"
StructuralFormula = "CH3CH2OH"
ChemicalName = "ETHANOL"
Family = "N-ALCOHOLS"
SubFamily = ""
MolarMass = 4.606900e+01
Tc = 5.140000e+02
Pc = 6.137000e+01
Vc = 1.680000e+02
Zc = 2.410000e-01
omega = 6.435580e-01
VdWArea = 4.930000e+08
VdWVolume = 3.194000e-02
DipoleMoment = 5.640000e-30
Ttriple = ""
Ptriple = ""
Psat_model = "DIPPR"
Psat_unitP = "Pa"
Psat_param = [7.330400e+01, -7.122300e+03, -7.142400e+00, 2.885300e-06, 2.000000e+00, ]
Psat_limits = [1.590500e+02, 5.140000e+02, ]
SecondVirialCoefficient = ""
Cp = ""
DielectricConstant = ""
dados = [276.50, 286.97, 293.54, 302.34, 309.77, 315.31, 323.52, 334.58, 342.36, 352.34, 363.49, 370.50, 351.45, 353.15, 363.15, 373.15, 383.15, 393.15, 403.15, 413.15, 423.15, 433.15, 443.15, 453.15, 463.15, 473.15, 483.15, 493.15, 503.15, 513.15, 270.31, 273.15, 283.15, 293.15, 298.15, 303.15, 313.15, 323.15, 333.15, 343.15, 353.15, 363.15, 292.77, 298.87, 306.48, 312.39, 320.50, 327.81, 336.01, 343.71, 350.55, 351.49, 352.34, 358.99, 366.63, 273.15, 298.15, 308.14, 318.14, 323.15, 328.14, 338.15, 351.70, 273.15, 283.15, 293.15, 303.15, 363.15, 383.15, 403.15, 413.15, 423.15, 433.15, 443.15, 453.15, 463.15, 473.15, 483.15, 493.15, 503.15, 513.15, 364.86, 373.29, 383.14, 393.40, 402.89, 408.53, 418.68, 428.88, 439.14, 448.38, 458.70, 468.80, 477.94, 487.81, 498.32, 508.01, 513.92, 277.24, 278.12, 283.14, 288.11, 293.20, 298.12, 303.16, 308.18, 313.17, 318.18, 319.17, 241.85, 261.15, 270.85, 281.15, 292.15, 299.15, 308.05, 321.55, 336.65, 351.55, 243.15, 273.15, 303.15, 231.00, 239.00, 247.00, 255.00, 263.00, 271.00, 279.00, 287.00, 295.00, 303.00, 311.00, 319.00, 327.00, 335.00, 343.00, 351.00, 359.00, 367.00, 375.00, 383.00, 391.00, 399.00, 407.00, 415.00, 423.00, 431.00, 439.00, 447.00, 455.00, 463.00, 471.00, 479.00, 487.00, 495.00, 503.00, 511.00, 273.15, 373.15, ],[0.0200, 0.0400, 0.0600, 0.1000, 0.1500, 0.2000, 0.3000, 0.5000, 0.7000, 1.0500, 1.6000, 2.0000, 1.0133, 1.0832, 1.5827, 2.2575, 3.1482, 4.2992, 5.7603, 7.5852, 9.8285, 12.5540, 15.8170, 19.6980, 24.2570, 29.5870, 35.7780, 42.9420, 51.2000, 60.7140, 0.0133, 0.0163, 0.0320, 0.0595, 0.0797, 0.1056, 0.1800, 0.2954, 0.4692, 0.7229, 1.0839, 1.5856, 0.0573, 0.0820, 0.1257, 0.1720, 0.2591, 0.3676, 0.5327, 0.7403, 0.9782, 1.0152, 1.0498, 1.3552, 1.7932, 0.0159, 0.0787, 0.1374, 0.2306, 0.2946, 0.3730, 0.5840, 1.0222, 0.0163, 0.0317, 0.0587, 0.1041, 1.5919, 3.1411, 5.7595, 7.5540, 9.7672, 12.4870, 15.8070, 19.6820, 24.2350, 29.5490, 35.7580, 42.7920, 50.8970, 60.6670, 1.6839, 2.2623, 3.1389, 4.3177, 5.7060, 6.6694, 8.7315, 11.2930, 14.4050, 17.7360, 22.1130, 27.1520, 32.4330, 38.9490, 46.9700, 55.5240, 61.4840, 0.0211, 0.0223, 0.0311, 0.0428, 0.0586, 0.0789, 0.1046, 0.1379, 0.1791, 0.2309, 0.2425, 0.0013, 0.0067, 0.0133, 0.0267, 0.0533, 0.0800, 0.1333, 0.2666, 0.5333, 1.0132, 0.0014, 0.0162, 0.1055, 0.0004, 0.0010, 0.0020, 0.0040, 0.0075, 0.0136, 0.0238, 0.0401, 0.0654, 0.1037, 0.1601, 0.2410, 0.3543, 0.5099, 0.7194, 0.9961, 1.3560, 1.8160, 2.3960, 3.1180, 4.0050, 5.0830, 6.3790, 7.9230, 9.7440, 11.8700, 14.3500, 17.2000, 20.4700, 24.2000, 28.4200, 33.1700, 38.5100, 44.4700, 51.1100, 58.4900, 0.0159, 2.2573, ]
index = 478.000000
vcosmo = 70.199480
sigma = [0.000000, 0.000000, 0.000000, 0.000000, 0.000000, 0.000000, 0.000000, 0.000000, 0.000000, 0.169947, 0.481368, 1.525734, 0.629710, 0.510396, 0.785748, 1.192813, 0.906612, 0.753040, 0.848409, 1.040998, 3.508124, 9.230502, 10.089076, 10.655729, 8.514452, 6.401002, 7.817023, 4.172579, 1.245362, 1.588623, 1.527698, 1.128492, 0.558762, 1.066649, 0.957679, 1.457453, 1.316878, 1.730209, 2.125518, 2.231910, 1.882005, 0.356068, 0.000000, 0.000000, 0.000000, 0.000000, 0.000000, 0.000000, 0.000000, 0.000000, 0.000000, ]
acosmo = 88.406570
z = [0.000000, 0.000000, 0.000000, 0.000000, 0.000000, 0.000000, 0.000000, 0.000000, 0.000000, 0.001922, 0.005445, 0.017258, 0.007123, 0.005773, 0.008888, 0.013492, 0.010255, 0.008518, 0.009597, 0.011775, 0.039682, 0.104410, 0.114121, 0.120531, 0.096310, 0.072404, 0.088421, 0.047198, 0.014087, 0.017970, 0.017280, 0.012765, 0.006320, 0.012065, 0.010833, 0.016486, 0.014896, 0.019571, 0.024043, 0.025246, 0.021288, 0.004028, 0.000000, 0.000000, 0.000000, 0.000000, 0.000000, 0.000000, 0.000000, 0.000000, 0.000000, ]
V_i = 36.731000
q = 6.778228
r = 8.222785
alphaprime = 8287227.862001
cNE = 653.715830
cNE_T = 304576.135129
cHB = 43069954.705586
v = 4.466978
sigmaHB = 0.008400
rnorm = 4.466978
H_vap = [298.15, 298.00, 298.15, 351.00, 298.15, 351.50, 159.05, 169.52, 179.98, 190.45, 200.92, 211.39, 221.85, 232.32, 242.79, 253.26, 263.72, 274.19, 284.66, 295.12, 305.59, 316.06, 326.53, 336.99, 347.46, 357.93, 368.39, 378.86, 389.33, 399.80, 410.26, 420.73, 431.20, ],[42.5930, 42.1750, 42.3090, 38.8200, 42.4600, 38.5600, 49.9650, 49.3840, 48.8080, 48.2390, 47.6750, 47.1170, 46.5650, 46.0200, 45.4810, 44.9450, 44.4130, 43.8800, 43.3430, 42.7970, 42.2340, 41.6480, 41.0300, 40.3710, 39.6600, 38.8890, 38.0450, 37.1190, 36.0980, 34.9720, 33.7270, 32.3490, 30.8210, ]
Cp_IG = [50.00, 100.00, 150.00, 50.00, 100.00, 150.00, 200.00, 200.00, 273.16, 298.15, 300.00, 400.00, 500.00, 600.00, 700.00, 800.00, 900.00, 1000.00, 1100.00, 1200.00, 1300.00, 1400.00, 1500.00, ],[37.5300, 41.6100, 46.4400, 37.1200, 41.7000, 46.9400, 52.0200, 52.0200, 61.4600, 65.2100, 65.4900, 81.2200, 95.7800, 108.2400, 118.8300, 127.9200, 135.8100, 142.6800, 148.6800, 153.9200, 158.4900, 162.5000, 166.0100, ]
Cp_liquid = [159.00, 170.00, 180.00, 190.00, 200.00, 210.00, 220.00, 230.00, 240.00, 250.00, 260.00, 270.00, 280.00, 290.00, 298.15, 310.00, 320.00, 330.00, 340.00, 350.00, 360.00, 370.00, 380.00, 390.00, ],[87.7000, 88.0000, 88.4700, 89.1100, 89.9400, 90.9800, 92.2500, 93.7800, 95.5600, 97.6400, 100.0200, 102.7300, 105.7800, 109.1900, 112.2500, 117.1600, 121.7000, 126.6000, 131.9000, 137.6000, 143.7000, 150.2000, 157.0000, 164.3000, ]
Dens_liquid = [273.15, 283.15, 293.15, 303.15, 313.15, 323.15, 333.15, 343.15, 353.15, 363.15, 373.15, 383.15, 393.15, 403.15, 413.15, 423.15, 433.15, 443.15, 453.15, 463.15, 473.15, 293.15, 298.15, 303.15, 320.00, 340.00, 360.00, 380.00, 400.00, 420.00, 430.00, 440.00, 450.00, 455.00, 223.15, 233.15, 243.15, 253.14, 258.15, 263.15, 273.14, 283.15, 293.17, 293.18, 293.15, 298.15, 303.15, 308.15, 313.15, 318.15, 288.15, 298.15, 308.15, 318.15, 328.15, ],[0.0175, 0.0173, 0.0171, 0.0170, 0.0168, 0.0166, 0.0164, 0.0161, 0.0159, 0.0157, 0.0155, 0.0153, 0.0150, 0.0147, 0.0144, 0.0141, 0.0137, 0.0134, 0.0130, 0.0126, 0.0121, 0.0171, 0.0170, 0.0169, 0.0166, 0.0162, 0.0158, 0.0153, 0.0148, 0.0142, 0.0139, 0.0135, 0.0131, 0.0129, 0.0184, 0.0182, 0.0181, 0.0179, 0.0178, 0.0177, 0.0175, 0.0173, 0.0171, 0.0171, 0.0171, 0.0170, 0.0169, 0.0169, 0.0168, 0.0167, 0.0172, 0.0170, 0.0169, 0.0167, 0.0165, ]
Vapor_pressure_liquid = [276.50, 286.97, 293.54, 302.34, 309.77, 315.31, 323.52, 334.58, 342.36, 352.34, 363.49, 370.50, 351.45, 353.15, 363.15, 373.15, 383.15, 393.15, 403.15, 413.15, 423.15, 433.15, 443.15, 453.15, 463.15, 473.15, 483.15, 493.15, 503.15, 513.15, 270.31, 273.15, 283.15, 293.15, 298.15, 303.15, 313.15, 323.15, 333.15, 343.15, 353.15, 363.15, 292.77, 298.87, 306.48, 312.39, 320.50, 327.81, 336.01, 343.71, 350.55, 351.49, 352.34, 358.99, 366.63, 273.15, 298.15, 308.14, 318.14, 323.15, 328.14, 338.15, 351.70, 273.15, 283.15, 293.15, 303.15, 363.15, 383.15, 403.15, 413.15, 423.15, 433.15, 443.15, 453.15, 463.15, 473.15, 483.15, 493.15, 503.15, 513.15, 364.86, 373.29, 383.14, 393.40, 402.89, 408.53, 418.68, 428.88, 439.14, 448.38, 458.70, 468.80, 477.94, 487.81, 498.32, 508.01, 513.92, 243.15, 273.15, 303.15, ],[0.0200, 0.0400, 0.0600, 0.1000, 0.1500, 0.2000, 0.3000, 0.5000, 0.7000, 1.0500, 1.6000, 2.0000, 1.0133, 1.0832, 1.5827, 2.2575, 3.1482, 4.2992, 5.7603, 7.5852, 9.8285, 12.5540, 15.8170, 19.6980, 24.2570, 29.5870, 35.7780, 42.9420, 51.2000, 60.7140, 0.0133, 0.0163, 0.0320, 0.0595, 0.0797, 0.1056, 0.1800, 0.2954, 0.4692, 0.7229, 1.0839, 1.5856, 0.0573, 0.0820, 0.1257, 0.1720, 0.2591, 0.3676, 0.5327, 0.7403, 0.9782, 1.0152, 1.0498, 1.3552, 1.7932, 0.0159, 0.0787, 0.1374, 0.2306, 0.2946, 0.3730, 0.5840, 1.0222, 0.0163, 0.0317, 0.0587, 0.1041, 1.5919, 3.1411, 5.7595, 7.5540, 9.7672, 12.4870, 15.8070, 19.6820, 24.2350, 29.5490, 35.7580, 42.7920, 50.8970, 60.6670, 1.6839, 2.2623, 3.1389, 4.3177, 5.7060, 6.6694, 8.7315, 11.2930, 14.4050, 17.7360, 22.1130, 27.1520, 32.4330, 38.9490, 46.9700, 55.5240, 61.4840, 0.0014, 0.0162, 0.1055, ]
Second_Virial_Coefficient = [309.72, 335.53, 361.34, 387.15, 412.96, 438.77, 464.58, 490.36, 516.20, 567.82, 619.44, 671.06, 722.68, 825.92, 929.16, 1032.40, 1290.50, 1548.60, 1806.70, 2064.80, 2581.00, 333.20, 353.20, 373.20, ],[-2300.0000, -1300.0000, -830.0000, -580.0000, -430.0000, -340.0000, -270.0000, -220.0000, -190.0000, -140.0000, -100.0000, -80.0000, -60.0000, -40.0000, -30.0000, -20.0000, -3.0000, 5.0000, 10.0000, 10.0000, 20.0000, -1522.0000, -941.0000, -687.0000, ]
