Name = "CYCLOHEXANE"
CASNumber = "110-82-7"
Formula = "C6H12"
StructuralFormula = "-(CH2)6-"
ChemicalName = "CYCLOHEXANE"
Family = "CYCLOALKANES"
SubFamily = ""
MolarMass = 8.416130e+01
Tc = 5.538000e+02
Pc = 4.080000e+01
Vc = 3.080000e+02
Zc = 2.730000e-01
omega = 2.080540e-01
VdWArea = 8.100000e+08
VdWVolume = 6.140000e-02
DipoleMoment = 2.030000e-30
Ttriple = ""
Ptriple = ""
Psat_model = "DIPPR"
Psat_unitP = "Pa"
Psat_param = [5.108700e+01, -5.226400e+03, -4.227800e+00, 9.755400e-18, 6.000000e+00, ]
Psat_limits = [2.796900e+02, 5.538000e+02, ]
SecondVirialCoefficient = ""
Cp = ""
DielectricConstant = ""
dados = [354.15, 380.15, 397.15, 410.15, 420.15, 429.15, 437.65, 444.65, 451.15, 468.15, 477.15, 485.65, 495.15, 500.15, 518.15, 530.15, 543.65, 552.15, 350.55, 351.35, 352.65, 353.35, 356.75, 357.35, 360.55, 363.65, 364.65, 367.25, 369.15, 371.45, 293.07, 295.81, 299.49, 303.71, 307.97, 311.95, 317.26, 322.14, 328.03, 334.12, 340.62, 352.65, 354.73, 344.26, 377.59, 410.93, 444.26, 477.59, 510.93, 283.02, 286.76, 290.78, 294.11, 280.05, 282.27, 283.18, 451.40, 469.40, 486.40, 495.70, 504.90, 515.60, 526.20, 536.80, 546.90, 551.70, 552.60, 553.60, 323.15, 328.15, 333.15, 338.15, 343.15, 348.15, 353.15, 358.15, 363.15, 368.15, 373.15, 378.15, 383.15, 388.15, 393.15, 398.15, 403.15, 408.15, 413.15, 418.15, 423.15, 428.15, 433.15, 438.15, 443.15, 448.15, 453.15, 458.15, 463.15, 468.15, 473.15, 478.15, 483.15, 488.15, 493.15, 498.15, 503.15, 508.15, 513.15, 518.15, 523.15, 283.15, 293.15, 303.15, 313.15, 323.15, 333.15, 343.15, 353.15, 353.90, 363.15, 373.15, 283.18, 284.10, 285.25, 293.07, 295.81, 299.50, 303.71, 307.97, 311.95, 317.26, 322.14, 328.03, 334.12, 340.62, 347.67, 352.75, 353.19, 353.68, 354.24, 354.65, 279.85, 287.85, 298.65, 315.15, 333.95, 353.85, 379.15, 419.15, 457.15, 501.15, 530.15, 282.11, 287.82, 292.44, 301.33, 308.05, 318.15, 325.82, 332.08, 337.41, 342.08, 346.25, 350.03, 353.49, 355.12, 356.69, 359.68, 362.48, 369.98, 378.46, 383.15, 388.15, 393.15, 398.15, 403.15, 408.15, 413.15, 418.15, 423.15, 428.15, 433.15, 443.15, 453.15, 463.15, 473.15, 483.15, 493.15, 503.15, 513.15, 523.15, 533.15, 543.15, 548.15, 553.15, 553.50, 282.11, 287.82, 292.44, 301.33, 308.05, 318.15, 325.82, 332.08, 337.41, 342.08, 346.25, 350.03, 353.49, 353.93, 354.48, 355.12, 356.69, 359.68, 362.48, 369.98, 378.46, 303.56, 308.01, 315.05, 320.91, 323.15, 325.62, 330.10, 334.07, 337.44, 340.95, 344.04, 346.45, 348.15, 349.20, 351.51, 353.65, ],[1.0133, 2.0265, 3.0398, 4.0530, 5.0663, 6.0795, 7.0928, 8.1060, 9.1193, 12.1590, 14.1860, 16.2120, 18.2390, 20.2650, 25.3310, 30.3980, 35.4640, 40.5300, 0.9161, 0.9395, 0.9790, 1.0011, 1.0892, 1.1092, 1.2212, 1.3399, 1.3839, 1.4826, 1.5625, 1.6625, 0.1030, 0.1169, 0.1382, 0.1662, 0.1992, 0.2345, 0.2896, 0.3489, 0.4333, 0.5366, 0.6676, 0.9761, 1.0392, 0.7715, 1.9643, 4.3609, 8.3496, 14.6580, 23.8430, 0.0642, 0.0770, 0.0933, 0.1091, 0.0541, 0.0616, 0.0646, 9.3667, 12.6580, 16.4840, 18.9240, 21.5740, 24.9810, 28.7770, 32.9640, 37.4570, 39.7970, 40.2290, 40.7510, 0.3622, 0.4348, 0.5187, 0.6150, 0.7250, 0.8499, 0.9911, 1.1499, 1.3279, 1.5264, 1.7469, 1.9909, 2.2602, 2.5566, 2.8821, 3.2383, 3.6272, 4.0499, 4.5076, 5.0015, 5.5327, 5.8960, 6.7148, 7.3719, 8.0776, 8.8351, 9.6473, 10.5160, 11.4410, 12.4240, 13.4650, 14.5660, 15.7290, 16.9570, 18.2520, 19.6170, 21.0550, 22.5730, 24.1780, 25.8760, 27.6760, 0.0627, 0.1025, 0.1617, 0.2421, 0.3589, 0.5133, 0.7210, 0.9883, 1.0132, 1.3226, 1.7385, 0.0646, 0.0679, 0.0720, 0.1030, 0.1169, 0.1382, 0.1662, 0.1992, 0.2345, 0.2896, 0.3489, 0.4332, 0.5366, 0.6676, 0.8372, 0.9761, 0.9921, 1.0110, 1.0240, 1.0339, 0.0533, 0.0800, 0.1333, 0.2666, 0.5333, 1.0132, 2.0265, 5.0662, 10.1320, 20.2650, 30.3970, 0.0600, 0.0800, 0.1000, 0.1500, 0.2000, 0.3000, 0.4000, 0.5000, 0.6000, 0.7000, 0.8000, 0.9000, 1.0000, 1.0500, 1.1000, 1.2000, 1.3000, 1.6000, 2.0000, 2.2558, 2.5513, 2.8752, 3.2293, 3.6154, 4.0351, 4.4902, 4.9826, 5.5141, 6.0865, 6.7019, 8.0690, 9.6316, 11.4070, 13.4130, 15.6700, 18.1990, 21.0240, 24.1710, 27.6670, 31.5390, 35.8060, 38.0920, 40.4790, 40.6500, 0.0600, 0.0800, 0.1000, 0.1500, 0.2000, 0.3000, 0.4000, 0.5000, 0.6000, 0.7000, 0.8000, 0.9000, 1.0000, 1.0133, 1.0300, 1.0500, 1.1000, 1.2000, 1.3000, 1.6000, 2.0000, 0.1647, 0.1990, 0.2655, 0.3329, 0.3625, 0.3972, 0.4664, 0.5360, 0.6008, 0.6749, 0.7463, 0.8058, 0.8500, 0.8789, 0.9436, 1.0064, ]
index = 99.000000
vcosmo = 129.721910
sigma = [0.000000, 0.000000, 0.000000, 0.000000, 0.000000, 0.000000, 0.000000, 0.000000, 0.000000, 0.000000, 0.000000, 0.000000, 0.000000, 0.000000, 0.000000, 0.000000, 0.000000, 0.000000, 0.000000, 0.000000, 0.000000, 0.000000, 5.274552, 23.696718, 29.011360, 28.202519, 17.868215, 21.308605, 9.189570, 0.000000, 0.000000, 0.000000, 0.000000, 0.000000, 0.000000, 0.000000, 0.000000, 0.000000, 0.000000, 0.000000, 0.000000, 0.000000, 0.000000, 0.000000, 0.000000, 0.000000, 0.000000, 0.000000, 0.000000, 0.000000, 0.000000, ]
acosmo = 134.551540
z = [0.000000, 0.000000, 0.000000, 0.000000, 0.000000, 0.000000, 0.000000, 0.000000, 0.000000, 0.000000, 0.000000, 0.000000, 0.000000, 0.000000, 0.000000, 0.000000, 0.000000, 0.000000, 0.000000, 0.000000, 0.000000, 0.000000, 0.039201, 0.176116, 0.215615, 0.209604, 0.132798, 0.158368, 0.068298, 0.000000, 0.000000, 0.000000, 0.000000, 0.000000, 0.000000, 0.000000, 0.000000, 0.000000, 0.000000, 0.000000, 0.000000, 0.000000, 0.000000, 0.000000, 0.000000, 0.000000, 0.000000, 0.000000, 0.000000, 0.000000, 0.000000, ]
V_i = 70.610000
q = 5.897188
r = 7.121485
alphaprime = 8287227.862001
cNE = 569.660817
cNE_T = 3605471.380600
cHB = 43069954.705586
v = 9.915067
sigmaHB = 0.008400
rnorm = 9.915067
H_vap = [310.93, 327.59, 344.26, 360.93, 377.59, 394.26, 410.93, 427.59, 327.26, 346.43, 475.37, 501.48, 522.59, 537.04, 279.69, 287.23, 294.76, 302.30, 309.83, 317.37, 324.90, 332.44, 339.97, 347.51, 355.05, 362.58, 370.12, 377.65, 385.19, 392.72, 400.26, 407.79, 415.33, 422.87, 430.40, 437.94, 445.47, 453.01, 313.15, 323.15, 333.15, 343.15, 353.85, 353.62, ],[32.2880, 31.3430, 30.3950, 29.4070, 28.3740, 27.2820, 26.1160, 24.8000, 31.3790, 30.3810, 20.4040, 17.3720, 13.9290, 10.7790, 33.9100, 33.4900, 33.0800, 32.6700, 32.2600, 31.8500, 31.4400, 31.0200, 30.6000, 30.1800, 29.7600, 29.3200, 28.8800, 28.4300, 27.9700, 27.5000, 27.0200, 26.5200, 26.0100, 25.4800, 24.9300, 24.3500, 23.7500, 23.1300, 32.2370, 31.8850, 31.1420, 30.6110, 30.0540, 30.0540, ]
Cp_IG = [100.00, 200.00, 298.15, 300.00, 400.00, 500.00, 600.00, 700.00, 800.00, 900.00, 1000.00, 1100.00, 1200.00, 1300.00, 1400.00, 1500.00, ],[42.5900, 69.0530, 105.3400, 106.1100, 148.6400, 188.6800, 223.3800, 252.6200, 277.0500, 297.4200, 314.4200, 328.6600, 340.6500, 350.7900, 359.4400, 366.8400, ]
Cp_liquid = [283.10, 285.30, 286.60, 290.70, 298.90, 279.99, 282.26, 286.87, 288.31, 291.73, 296.22, 296.54, 301.29, 299.82, 305.37, 310.93, 316.40, 322.04, 327.59, 333.15, 338.71, 344.26, 349.82, 355.37, 360.93, 366.48, 279.99, 286.87, 291.73, 296.54, 305.37, 316.40, 327.59, 338.71, 349.82, 360.93, 366.48, ],[148.6000, 148.9500, 149.6500, 151.4200, 154.9400, 149.3000, 150.1400, 151.9900, 152.5800, 153.8500, 155.5300, 155.5300, 157.5500, 154.2700, 156.6200, 158.7300, 161.0000, 163.5200, 165.6300, 167.9000, 170.3400, 172.6100, 174.8000, 177.4100, 180.0200, 182.8800, 149.3000, 151.9900, 153.8500, 155.5300, 156.6200, 161.0000, 165.6300, 170.3400, 174.8000, 180.0200, 182.8800, ]
Dens_liquid = [280.15, 287.65, 288.15, 289.26, 293.15, 293.93, 298.21, 303.15, 313.15, 317.76, 323.15, 333.15, 343.15, 353.15, 403.15, 438.15, 465.15, 488.15, 504.65, 515.15, 525.93, 529.15, 301.15, 313.15, 323.15, 333.15, 343.15, ],[0.0094, 0.0093, 0.0093, 0.0093, 0.0092, 0.0092, 0.0092, 0.0091, 0.0090, 0.0090, 0.0089, 0.0088, 0.0087, 0.0086, 0.0079, 0.0074, 0.0070, 0.0066, 0.0063, 0.0059, 0.0057, 0.0055, 0.0092, 0.0090, 0.0089, 0.0088, 0.0087, ]
Vapor_pressure_liquid = [293.07, 295.81, 299.49, 303.71, 307.97, 311.95, 317.26, 322.14, 328.03, 334.12, 340.62, 352.65, 354.73, 280.05, 282.27, 283.18, 323.15, 328.15, 333.15, 338.15, 343.15, 348.15, 353.15, 358.15, 363.15, 368.15, 373.15, 378.15, 383.15, 388.15, 393.15, 398.15, 403.15, 408.15, 413.15, 418.15, 423.15, 433.15, 438.15, 443.15, 448.15, 453.15, 458.15, 463.15, 468.15, 473.15, 478.15, 483.15, 488.15, 493.15, 498.15, 503.15, 508.15, 513.15, 518.15, 523.15, 383.15, 388.15, 393.15, 398.15, 403.15, 408.15, 413.15, 418.15, 423.15, 428.15, 433.15, 443.15, 453.15, 463.15, 473.15, 483.15, 493.15, 503.15, 513.15, 523.15, 533.15, 543.15, 548.15, 553.15, 553.50, 282.11, 287.82, 292.44, 301.33, 308.05, 318.15, 325.82, 332.08, 337.41, 342.08, 346.25, 350.03, 353.49, 353.93, 354.48, 355.12, 356.69, 359.68, 362.48, 369.98, 378.46, 303.56, 308.01, 315.05, 320.91, 323.15, 325.62, 330.10, 334.07, 337.44, 340.95, 344.04, 346.45, 348.15, 349.20, 351.51, 353.65, ],[0.1030, 0.1169, 0.1382, 0.1662, 0.1992, 0.2345, 0.2896, 0.3489, 0.4333, 0.5366, 0.6676, 0.9761, 1.0392, 0.0541, 0.0616, 0.0646, 0.3622, 0.4348, 0.5187, 0.6150, 0.7250, 0.8499, 0.9911, 1.1499, 1.3279, 1.5264, 1.7469, 1.9909, 2.2602, 2.5566, 2.8821, 3.2383, 3.6272, 4.0499, 4.5076, 5.0015, 5.5327, 6.7148, 7.3719, 8.0776, 8.8351, 9.6473, 10.5160, 11.4410, 12.4240, 13.4650, 14.5660, 15.7290, 16.9570, 18.2520, 19.6170, 21.0550, 22.5730, 24.1780, 25.8760, 27.6760, 2.2558, 2.5513, 2.8752, 3.2293, 3.6154, 4.0351, 4.4902, 4.9826, 5.5141, 6.0865, 6.7019, 8.0690, 9.6316, 11.4070, 13.4130, 15.6700, 18.1990, 21.0240, 24.1710, 27.6670, 31.5390, 35.8060, 38.0920, 40.4790, 40.6500, 0.0600, 0.0800, 0.1000, 0.1500, 0.2000, 0.3000, 0.4000, 0.5000, 0.6000, 0.7000, 0.8000, 0.9000, 1.0000, 1.0133, 1.0300, 1.0500, 1.1000, 1.2000, 1.3000, 1.6000, 2.0000, 0.1647, 0.1990, 0.2655, 0.3329, 0.3625, 0.3972, 0.4664, 0.5360, 0.6008, 0.6749, 0.7463, 0.8058, 0.8500, 0.8789, 0.9436, 1.0064, ]
Second_Virial_Coefficient = [276.70, 304.37, 332.04, 359.71, 387.38, 415.05, 442.72, 470.39, 498.06, 525.73, 553.40, 608.74, 664.08, 719.42, 774.76, 885.44, 996.12, 1106.80, 1383.50, 1660.20, 1936.90, 2213.60, 2490.30, 2767.00, ],[-2300.0000, -1700.0000, -1290.0000, -1020.0000, -830.0000, -690.0000, -580.0000, -500.0000, -430.0000, -370.0000, -330.0000, -250.0000, -200.0000, -150.0000, -120.0000, -70.0000, -30.0000, -6.0000, 38.0000, 64.0000, 81.0000, 93.0000, 102.0000, 108.0000, ]
